; Created by Sobtop (http://sobereva.com/soft/sobtop) Version 1.0(dev3.2) on 2026-02-26

[ moleculetype ]
; name          nrexcl
GA       3

[ atoms ]
;  Index   type   residue  resname   atom        cgnr     charge       mass
     1     os         1      GA     O             1   -0.44321443   15.999405
     2     o          1      GA     O             2   -0.61847242   15.999405
     3     os         1      GA     O             3   -0.28322148   15.999405
     4     oh         1      GA     O             4   -0.65688735   15.999405
     5     o          1      GA     O             5   -0.57918165   15.999405
     6     os         1      GA     O             6   -0.50908081   15.999405
     7     oh         1      GA     O             7   -0.71483255   15.999405
     8     oh         1      GA     O             8   -0.69752853   15.999405
     9     os         1      GA     O             9   -0.33338504   15.999405
    10     oh         1      GA     O            10   -0.63715457   15.999405
    11     o          1      GA     O            11   -0.57263613   15.999405
    12     oh         1      GA     O            12   -0.73705270   15.999405
    13     oh         1      GA     O            13   -0.63444447   15.999405
    14     oh         1      GA     O            14   -0.73991844   15.999405
    15     oh         1      GA     O            15   -0.59898246   15.999405
    16     o          1      GA     O            16   -0.53658570   15.999405
    17     c3         1      GA     C            17    0.30021054   12.010736
    18     c3         1      GA     C            18    0.74761474   12.010736
    19     c3         1      GA     C            19   -0.10147733   12.010736
    20     c3         1      GA     C            20    0.28063336   12.010736
    21     c3         1      GA     C            21   -0.09116902   12.010736
    22     c3         1      GA     C            22   -0.09949598   12.010736
    23     c3         1      GA     C            23    0.54392024   12.010736
    24     c3         1      GA     C            24   -0.08638027   12.010736
    25     c2         1      GA     C            25   -0.08095569   12.010736
    26     c3         1      GA     C            26   -0.04542717   12.010736
    27     c3         1      GA     C            27    0.49703269   12.010736
    28     c3         1      GA     C            28   -0.08155284   12.010736
    29     c3         1      GA     C            29   -0.41141737   12.010736
    30     c3         1      GA     C            30   -0.17292705   12.010736
    31     c3         1      GA     C            31    0.28262636   12.010736
    32     c          1      GA     C            32    0.59269802   12.010736
    33     c3         1      GA     C            33   -0.45625157   12.010736
    34     c3         1      GA     C            34    0.03794820   12.010736
    35     c3         1      GA     C            35   -0.50033931   12.010736
    36     c3         1      GA     C            36   -0.67157228   12.010736
    37     ce         1      GA     C            37   -0.29282783   12.010736
    38     c3         1      GA     C            38   -0.19286311   12.010736
    39     c3         1      GA     C            39   -0.19289598   12.010736
    40     c3         1      GA     C            40    0.12241813   12.010736
    41     c3         1      GA     C            41   -0.27836303   12.010736
    42     c3         1      GA     C            42   -0.40371707   12.010736
    43     c3         1      GA     C            43   -0.09193310   12.010736
    44     c3         1      GA     C            44   -0.40209893   12.010736
    45     c3         1      GA     C            45   -0.54752784   12.010736
    46     c          1      GA     C            46    0.77279703   12.010736
    47     c3         1      GA     C            47   -0.03621649   12.010736
    48     c3         1      GA     C            48    0.40461994   12.010736
    49     c3         1      GA     C            49    0.07160851   12.010736
    50     c3         1      GA     C            50   -0.11552523   12.010736
    51     c3         1      GA     C            51    0.02581624   12.010736
    52     c3         1      GA     C            52    0.13968848   12.010736
    53     c          1      GA     C            53    0.82994099   12.010736
    54     c3         1      GA     C            54    0.22054357   12.010736
    55     c3         1      GA     C            55    0.08472315   12.010736
    56     c3         1      GA     C            56    0.02646125   12.010736
    57     c3         1      GA     C            57    0.32413458   12.010736
    58     c          1      GA     C            58    0.68998090   12.010736
    59     hc         1      GA     H            59   -0.06565141    1.007941
    60     hc         1      GA     H            60   -0.06231735    1.007941
    61     hc         1      GA     H            61    0.01520422    1.007941
    62     hc         1      GA     H            62    0.01520422    1.007941
    63     hc         1      GA     H            63    0.02177524    1.007941
    64     hc         1      GA     H            64    0.02177524    1.007941
    65     hc         1      GA     H            65    0.02190253    1.007941
    66     hc         1      GA     H            66    0.03277090    1.007941
    67     hc         1      GA     H            67    0.03277090    1.007941
    68     hc         1      GA     H            68    0.06516142    1.007941
    69     hc         1      GA     H            69    0.06516142    1.007941
    70     hc         1      GA     H            70    0.04804849    1.007941
    71     hc         1      GA     H            71    0.04804849    1.007941
    72     h1         1      GA     H            72   -0.05323617    1.007941
    73     hc         1      GA     H            73    0.09463911    1.007941
    74     hc         1      GA     H            74    0.09463911    1.007941
    75     hc         1      GA     H            75    0.09463911    1.007941
    76     hc         1      GA     H            76    0.04251367    1.007941
    77     hc         1      GA     H            77    0.04251367    1.007941
    78     hc         1      GA     H            78    0.08518386    1.007941
    79     hc         1      GA     H            79    0.08518386    1.007941
    80     hc         1      GA     H            80    0.08518386    1.007941
    81     hc         1      GA     H            81    0.17392150    1.007941
    82     hc         1      GA     H            82    0.17392150    1.007941
    83     hc         1      GA     H            83    0.17392150    1.007941
    84     ha         1      GA     H            84    0.11996065    1.007941
    85     hc         1      GA     H            85    0.08720100    1.007941
    86     hc         1      GA     H            86    0.08720100    1.007941
    87     hc         1      GA     H            87    0.03073711    1.007941
    88     hc         1      GA     H            88    0.03073711    1.007941
    89     hc         1      GA     H            89    0.02974134    1.007941
    90     hc         1      GA     H            90    0.02974134    1.007941
    91     hc         1      GA     H            91    0.02974134    1.007941
    92     hc         1      GA     H            92    0.07415439    1.007941
    93     hc         1      GA     H            93    0.07415439    1.007941
    94     hc         1      GA     H            94    0.07415439    1.007941
    95     hc         1      GA     H            95    0.05324741    1.007941
    96     hc         1      GA     H            96    0.05324741    1.007941
    97     hc         1      GA     H            97    0.08100239    1.007941
    98     hc         1      GA     H            98    0.08100239    1.007941
    99     hc         1      GA     H            99    0.08100239    1.007941
   100     hc         1      GA     H           100    0.13954475    1.007941
   101     hc         1      GA     H           101    0.13954475    1.007941
   102     hc         1      GA     H           102    0.13954475    1.007941
   103     h2         1      GA     H           103    0.12199798    1.007941
   104     h1         1      GA     H           104    0.07729051    1.007941
   105     ho         1      GA     H           105    0.46326584    1.007941
   106     h1         1      GA     H           106    0.16865792    1.007941
   107     h1         1      GA     H           107    0.12297795    1.007941
   108     h1         1      GA     H           108    0.17426161    1.007941
   109     h2         1      GA     H           109    0.15233323    1.007941
   110     ho         1      GA     H           110    0.45627268    1.007941
   111     ho         1      GA     H           111    0.49493890    1.007941
   112     h1         1      GA     H           112    0.11529185    1.007941
   113     h1         1      GA     H           113    0.06924909    1.007941
   114     h1         1      GA     H           114    0.09105703    1.007941
   115     ho         1      GA     H           115    0.47123830    1.007941
   116     h1         1      GA     H           116    0.05815728    1.007941
   117     ho         1      GA     H           117    0.47837389    1.007941
   118     ho         1      GA     H           118    0.41405314    1.007941
   119     ho         1      GA     H           119    0.47792777    1.007941
   120     ho         1      GA     H           120    0.45421219    1.007941
 
[ bonds ]
; atom_i  atom_j  functype      r0 (nm)    k (kJ/mol/nm^2)
    1      31         1        0.143160     2.582365E+05     ; O-C, prebuilt c3-os
    1      47         1        0.143160     2.582365E+05     ; O-C, prebuilt c3-os
    2      32         1        0.121830     5.336274E+05     ; O-C, prebuilt c-o
    3      47         1        0.143160     2.582365E+05     ; O-C, prebuilt c3-os
    3      50         1        0.143160     2.582365E+05     ; O-C, prebuilt c3-os
    4      46         1        0.135130     3.348037E+05     ; O-C, prebuilt c-oh
    4     105         1        0.097300     3.107875E+05     ; O-H, prebuilt ho-oh
    5      46         1        0.121830     5.336274E+05     ; O-C, prebuilt c-o
    6      48         1        0.143160     2.582365E+05     ; O-C, prebuilt c3-os
    6      52         1        0.143160     2.582365E+05     ; O-C, prebuilt c3-os
    7      49         1        0.142330     2.650146E+05     ; O-C, prebuilt c3-oh
    7     110         1        0.097300     3.107875E+05     ; O-H, prebuilt ho-oh
    8      51         1        0.142330     2.650146E+05     ; O-C, prebuilt c3-oh
    8     111         1        0.097300     3.107875E+05     ; O-H, prebuilt ho-oh
    9      52         1        0.143160     2.582365E+05     ; O-C, prebuilt c3-os
    9      56         1        0.143160     2.582365E+05     ; O-C, prebuilt c3-os
   10      53         1        0.135130     3.348037E+05     ; O-C, prebuilt c-oh
   10     115         1        0.097300     3.107875E+05     ; O-H, prebuilt ho-oh
   11      53         1        0.121830     5.336274E+05     ; O-C, prebuilt c-o
   12      54         1        0.142330     2.650146E+05     ; O-C, prebuilt c3-oh
   12     117         1        0.097300     3.107875E+05     ; O-H, prebuilt ho-oh
   13      55         1        0.142330     2.650146E+05     ; O-C, prebuilt c3-oh
   13     118         1        0.097300     3.107875E+05     ; O-H, prebuilt ho-oh
   14      57         1        0.142330     2.650146E+05     ; O-C, prebuilt c3-oh
   14     119         1        0.097300     3.107875E+05     ; O-H, prebuilt ho-oh
   15      58         1        0.135130     3.348037E+05     ; O-C, prebuilt c-oh
   15     120         1        0.097300     3.107875E+05     ; O-H, prebuilt ho-oh
   16      58         1        0.121830     5.336274E+05     ; O-C, prebuilt c-o
   17      19         1        0.153750     2.517931E+05     ; C-C, prebuilt c3-c3
   17      20         1        0.153750     2.517931E+05     ; C-C, prebuilt c3-c3
   17      22         1        0.153750     2.517931E+05     ; C-C, prebuilt c3-c3
   17      33         1        0.153750     2.517931E+05     ; C-C, prebuilt c3-c3
   18      19         1        0.153750     2.517931E+05     ; C-C, prebuilt c3-c3
   18      21         1        0.153750     2.517931E+05     ; C-C, prebuilt c3-c3
   18      29         1        0.153750     2.517931E+05     ; C-C, prebuilt c3-c3
   18      35         1        0.153750     2.517931E+05     ; C-C, prebuilt c3-c3
   19      32         1        0.152410     2.619184E+05     ; C-C, prebuilt c-c3
   19      59         1        0.109690     2.766461E+05     ; C-H, prebuilt c3-hc
   20      25         1        0.150950     2.734662E+05     ; C-C, prebuilt c2-c3
   20      28         1        0.153750     2.517931E+05     ; C-C, prebuilt c3-c3
   20      36         1        0.153750     2.517931E+05     ; C-C, prebuilt c3-c3
   21      23         1        0.153750     2.517931E+05     ; C-C, prebuilt c3-c3
   21      24         1        0.153750     2.517931E+05     ; C-C, prebuilt c3-c3
   21      60         1        0.109690     2.766461E+05     ; C-H, prebuilt c3-hc
   22      24         1        0.153750     2.517931E+05     ; C-C, prebuilt c3-c3
   22      61         1        0.109690     2.766461E+05     ; C-H, prebuilt c3-hc
   22      62         1        0.109690     2.766461E+05     ; C-H, prebuilt c3-hc
   23      31         1        0.153750     2.517931E+05     ; C-C, prebuilt c3-c3
   23      41         1        0.153750     2.517931E+05     ; C-C, prebuilt c3-c3
   23      42         1        0.153750     2.517931E+05     ; C-C, prebuilt c3-c3
   24      63         1        0.109690     2.766461E+05     ; C-H, prebuilt c3-hc
   24      64         1        0.109690     2.766461E+05     ; C-H, prebuilt c3-hc
   25      26         1        0.150950     2.734662E+05     ; C-C, prebuilt c2-c3
   25      37         1        0.134610     4.579806E+05     ; C-C, prebuilt c2-ce
   26      27         1        0.153750     2.517931E+05     ; C-C, prebuilt c3-c3
   26      38         1        0.153750     2.517931E+05     ; C-C, prebuilt c3-c3
   26      65         1        0.109690     2.766461E+05     ; C-H, prebuilt c3-hc
   27      30         1        0.153750     2.517931E+05     ; C-C, prebuilt c3-c3
   27      39         1        0.153750     2.517931E+05     ; C-C, prebuilt c3-c3
   27      44         1        0.153750     2.517931E+05     ; C-C, prebuilt c3-c3
   28      30         1        0.153750     2.517931E+05     ; C-C, prebuilt c3-c3
   28      66         1        0.109690     2.766461E+05     ; C-H, prebuilt c3-hc
   28      67         1        0.109690     2.766461E+05     ; C-H, prebuilt c3-hc
   29      34         1        0.153750     2.517931E+05     ; C-C, prebuilt c3-c3
   29      68         1        0.109690     2.766461E+05     ; C-H, prebuilt c3-hc
   29      69         1        0.109690     2.766461E+05     ; C-H, prebuilt c3-hc
   30      70         1        0.109690     2.766461E+05     ; C-H, prebuilt c3-hc
   30      71         1        0.109690     2.766461E+05     ; C-H, prebuilt c3-hc
   31      34         1        0.153750     2.517931E+05     ; C-C, prebuilt c3-c3
   31      72         1        0.109690     2.766461E+05     ; C-H, prebuilt c3-h1
   32      37         1        0.148250     2.966456E+05     ; C-C, prebuilt c-ce
   33      73         1        0.109690     2.766461E+05     ; C-H, prebuilt c3-hc
   33      74         1        0.109690     2.766461E+05     ; C-H, prebuilt c3-hc
   33      75         1        0.109690     2.766461E+05     ; C-H, prebuilt c3-hc
   34      76         1        0.109690     2.766461E+05     ; C-H, prebuilt c3-hc
   34      77         1        0.109690     2.766461E+05     ; C-H, prebuilt c3-hc
   35      78         1        0.109690     2.766461E+05     ; C-H, prebuilt c3-hc
   35      79         1        0.109690     2.766461E+05     ; C-H, prebuilt c3-hc
   35      80         1        0.109690     2.766461E+05     ; C-H, prebuilt c3-hc
   36      81         1        0.109690     2.766461E+05     ; C-H, prebuilt c3-hc
   36      82         1        0.109690     2.766461E+05     ; C-H, prebuilt c3-hc
   36      83         1        0.109690     2.766461E+05     ; C-H, prebuilt c3-hc
   37      84         1        0.108830     2.866040E+05     ; C-H, prebuilt ce-ha
   38      40         1        0.153750     2.517931E+05     ; C-C, prebuilt c3-c3
   38      85         1        0.109690     2.766461E+05     ; C-H, prebuilt c3-hc
   38      86         1        0.109690     2.766461E+05     ; C-H, prebuilt c3-hc
   39      43         1        0.153750     2.517931E+05     ; C-C, prebuilt c3-c3
   39      87         1        0.109690     2.766461E+05     ; C-H, prebuilt c3-hc
   39      88         1        0.109690     2.766461E+05     ; C-H, prebuilt c3-hc
   40      43         1        0.153750     2.517931E+05     ; C-C, prebuilt c3-c3
   40      45         1        0.153750     2.517931E+05     ; C-C, prebuilt c3-c3
   40      46         1        0.152410     2.619184E+05     ; C-C, prebuilt c-c3
   41      89         1        0.109690     2.766461E+05     ; C-H, prebuilt c3-hc
   41      90         1        0.109690     2.766461E+05     ; C-H, prebuilt c3-hc
   41      91         1        0.109690     2.766461E+05     ; C-H, prebuilt c3-hc
   42      92         1        0.109690     2.766461E+05     ; C-H, prebuilt c3-hc
   42      93         1        0.109690     2.766461E+05     ; C-H, prebuilt c3-hc
   42      94         1        0.109690     2.766461E+05     ; C-H, prebuilt c3-hc
   43      95         1        0.109690     2.766461E+05     ; C-H, prebuilt c3-hc
   43      96         1        0.109690     2.766461E+05     ; C-H, prebuilt c3-hc
   44      97         1        0.109690     2.766461E+05     ; C-H, prebuilt c3-hc
   44      98         1        0.109690     2.766461E+05     ; C-H, prebuilt c3-hc
   44      99         1        0.109690     2.766461E+05     ; C-H, prebuilt c3-hc
   45     100         1        0.109690     2.766461E+05     ; C-H, prebuilt c3-hc
   45     101         1        0.109690     2.766461E+05     ; C-H, prebuilt c3-hc
   45     102         1        0.109690     2.766461E+05     ; C-H, prebuilt c3-hc
   47      48         1        0.153750     2.517931E+05     ; C-C, prebuilt c3-c3
   47     103         1        0.109610     2.775666E+05     ; C-H, prebuilt c3-h2
   48      49         1        0.153750     2.517931E+05     ; C-C, prebuilt c3-c3
   48     104         1        0.109690     2.766461E+05     ; C-H, prebuilt c3-h1
   49      51         1        0.153750     2.517931E+05     ; C-C, prebuilt c3-c3
   49     106         1        0.109690     2.766461E+05     ; C-H, prebuilt c3-h1
   50      51         1        0.153750     2.517931E+05     ; C-C, prebuilt c3-c3
   50      53         1        0.152410     2.619184E+05     ; C-C, prebuilt c-c3
   50     107         1        0.109690     2.766461E+05     ; C-H, prebuilt c3-h1
   51     108         1        0.109690     2.766461E+05     ; C-H, prebuilt c3-h1
   52      54         1        0.153750     2.517931E+05     ; C-C, prebuilt c3-c3
   52     109         1        0.109610     2.775666E+05     ; C-H, prebuilt c3-h2
   54      55         1        0.153750     2.517931E+05     ; C-C, prebuilt c3-c3
   54     112         1        0.109690     2.766461E+05     ; C-H, prebuilt c3-h1
   55      57         1        0.153750     2.517931E+05     ; C-C, prebuilt c3-c3
   55     113         1        0.109690     2.766461E+05     ; C-H, prebuilt c3-h1
   56      57         1        0.153750     2.517931E+05     ; C-C, prebuilt c3-c3
   56      58         1        0.152410     2.619184E+05     ; C-C, prebuilt c-c3
   56     114         1        0.109690     2.766461E+05     ; C-H, prebuilt c3-h1
   57     116         1        0.109690     2.766461E+05     ; C-H, prebuilt c3-h1
 
[ angles ]
; atom_i  atom_j  atom_k  functype    a0 (Deg.)  k (kJ/mol/rad^2)
   31       1      47         1       112.480      5.246736E+02     ; C-O-C, prebuilt c3-os-c3
   47       3      50         1       112.480      5.246736E+02     ; C-O-C, prebuilt c3-os-c3
   46       4     105         1       106.550      4.175632E+02     ; C-O-H, prebuilt c-oh-ho
   48       6      52         1       112.480      5.246736E+02     ; C-O-C, prebuilt c3-os-c3
   49       7     110         1       107.260      3.966432E+02     ; C-O-H, prebuilt c3-oh-ho
   51       8     111         1       107.260      3.966432E+02     ; C-O-H, prebuilt c3-oh-ho
   52       9      56         1       112.480      5.246736E+02     ; C-O-C, prebuilt c3-os-c3
   53      10     115         1       106.550      4.175632E+02     ; C-O-H, prebuilt c-oh-ho
   54      12     117         1       107.260      3.966432E+02     ; C-O-H, prebuilt c3-oh-ho
   55      13     118         1       107.260      3.966432E+02     ; C-O-H, prebuilt c3-oh-ho
   57      14     119         1       107.260      3.966432E+02     ; C-O-H, prebuilt c3-oh-ho
   58      15     120         1       106.550      4.175632E+02     ; C-O-H, prebuilt c-oh-ho
   19      17      20         1       111.510      5.263472E+02     ; C-C-C, prebuilt c3-c3-c3
   19      17      22         1       111.510      5.263472E+02     ; C-C-C, prebuilt c3-c3-c3
   19      17      33         1       111.510      5.263472E+02     ; C-C-C, prebuilt c3-c3-c3
   20      17      22         1       111.510      5.263472E+02     ; C-C-C, prebuilt c3-c3-c3
   20      17      33         1       111.510      5.263472E+02     ; C-C-C, prebuilt c3-c3-c3
   22      17      33         1       111.510      5.263472E+02     ; C-C-C, prebuilt c3-c3-c3
   19      18      21         1       111.510      5.263472E+02     ; C-C-C, prebuilt c3-c3-c3
   19      18      29         1       111.510      5.263472E+02     ; C-C-C, prebuilt c3-c3-c3
   19      18      35         1       111.510      5.263472E+02     ; C-C-C, prebuilt c3-c3-c3
   21      18      29         1       111.510      5.263472E+02     ; C-C-C, prebuilt c3-c3-c3
   21      18      35         1       111.510      5.263472E+02     ; C-C-C, prebuilt c3-c3-c3
   29      18      35         1       111.510      5.263472E+02     ; C-C-C, prebuilt c3-c3-c3
   17      19      18         1       111.510      5.263472E+02     ; C-C-C, prebuilt c3-c3-c3
   17      19      32         1       111.040      5.296944E+02     ; C-C-C, prebuilt c-c3-c3
   17      19      59         1       109.800      3.874384E+02     ; C-C-H, prebuilt c3-c3-hc
   18      19      32         1       111.040      5.296944E+02     ; C-C-C, prebuilt c-c3-c3
   18      19      59         1       109.800      3.874384E+02     ; C-C-H, prebuilt c3-c3-hc
   32      19      59         1       108.770      3.924592E+02     ; C-C-H, prebuilt c-c3-hc
   17      20      25         1       111.560      5.305312E+02     ; C-C-C, prebuilt c2-c3-c3
   17      20      28         1       111.510      5.263472E+02     ; C-C-C, prebuilt c3-c3-c3
   17      20      36         1       111.510      5.263472E+02     ; C-C-C, prebuilt c3-c3-c3
   25      20      28         1       111.560      5.305312E+02     ; C-C-C, prebuilt c2-c3-c3
   25      20      36         1       111.560      5.305312E+02     ; C-C-C, prebuilt c2-c3-c3
   28      20      36         1       111.510      5.263472E+02     ; C-C-C, prebuilt c3-c3-c3
   18      21      23         1       111.510      5.263472E+02     ; C-C-C, prebuilt c3-c3-c3
   18      21      24         1       111.510      5.263472E+02     ; C-C-C, prebuilt c3-c3-c3
   18      21      60         1       109.800      3.874384E+02     ; C-C-H, prebuilt c3-c3-hc
   23      21      24         1       111.510      5.263472E+02     ; C-C-C, prebuilt c3-c3-c3
   23      21      60         1       109.800      3.874384E+02     ; C-C-H, prebuilt c3-c3-hc
   24      21      60         1       109.800      3.874384E+02     ; C-C-H, prebuilt c3-c3-hc
   17      22      24         1       111.510      5.263472E+02     ; C-C-C, prebuilt c3-c3-c3
   17      22      61         1       109.800      3.874384E+02     ; C-C-H, prebuilt c3-c3-hc
   17      22      62         1       109.800      3.874384E+02     ; C-C-H, prebuilt c3-c3-hc
   24      22      61         1       109.800      3.874384E+02     ; C-C-H, prebuilt c3-c3-hc
   24      22      62         1       109.800      3.874384E+02     ; C-C-H, prebuilt c3-c3-hc
   61      22      62         1       107.580      3.296992E+02     ; H-C-H, prebuilt hc-c3-hc
   21      23      31         1       111.510      5.263472E+02     ; C-C-C, prebuilt c3-c3-c3
   21      23      41         1       111.510      5.263472E+02     ; C-C-C, prebuilt c3-c3-c3
   21      23      42         1       111.510      5.263472E+02     ; C-C-C, prebuilt c3-c3-c3
   31      23      41         1       111.510      5.263472E+02     ; C-C-C, prebuilt c3-c3-c3
   31      23      42         1       111.510      5.263472E+02     ; C-C-C, prebuilt c3-c3-c3
   41      23      42         1       111.510      5.263472E+02     ; C-C-C, prebuilt c3-c3-c3
   21      24      22         1       111.510      5.263472E+02     ; C-C-C, prebuilt c3-c3-c3
   21      24      63         1       109.800      3.874384E+02     ; C-C-H, prebuilt c3-c3-hc
   21      24      64         1       109.800      3.874384E+02     ; C-C-H, prebuilt c3-c3-hc
   22      24      63         1       109.800      3.874384E+02     ; C-C-H, prebuilt c3-c3-hc
   22      24      64         1       109.800      3.874384E+02     ; C-C-H, prebuilt c3-c3-hc
   63      24      64         1       107.580      3.296992E+02     ; H-C-H, prebuilt hc-c3-hc
   20      25      26         1       115.650      5.263472E+02     ; C-C-C, prebuilt c3-c2-c3
   20      25      37         1       123.150      5.355520E+02     ; C-C-C, prebuilt c3-c2-ce
   26      25      37         1       123.150      5.355520E+02     ; C-C-C, prebuilt c3-c2-ce
   25      26      27         1       111.560      5.305312E+02     ; C-C-C, prebuilt c2-c3-c3
   25      26      38         1       111.560      5.305312E+02     ; C-C-C, prebuilt c2-c3-c3
   25      26      65         1       110.360      3.932960E+02     ; C-C-H, prebuilt c2-c3-hc
   27      26      38         1       111.510      5.263472E+02     ; C-C-C, prebuilt c3-c3-c3
   27      26      65         1       109.800      3.874384E+02     ; C-C-H, prebuilt c3-c3-hc
   38      26      65         1       109.800      3.874384E+02     ; C-C-H, prebuilt c3-c3-hc
   26      27      30         1       111.510      5.263472E+02     ; C-C-C, prebuilt c3-c3-c3
   26      27      39         1       111.510      5.263472E+02     ; C-C-C, prebuilt c3-c3-c3
   26      27      44         1       111.510      5.263472E+02     ; C-C-C, prebuilt c3-c3-c3
   30      27      39         1       111.510      5.263472E+02     ; C-C-C, prebuilt c3-c3-c3
   30      27      44         1       111.510      5.263472E+02     ; C-C-C, prebuilt c3-c3-c3
   39      27      44         1       111.510      5.263472E+02     ; C-C-C, prebuilt c3-c3-c3
   20      28      30         1       111.510      5.263472E+02     ; C-C-C, prebuilt c3-c3-c3
   20      28      66         1       109.800      3.874384E+02     ; C-C-H, prebuilt c3-c3-hc
   20      28      67         1       109.800      3.874384E+02     ; C-C-H, prebuilt c3-c3-hc
   30      28      66         1       109.800      3.874384E+02     ; C-C-H, prebuilt c3-c3-hc
   30      28      67         1       109.800      3.874384E+02     ; C-C-H, prebuilt c3-c3-hc
   66      28      67         1       107.580      3.296992E+02     ; H-C-H, prebuilt hc-c3-hc
   18      29      34         1       111.510      5.263472E+02     ; C-C-C, prebuilt c3-c3-c3
   18      29      68         1       109.800      3.874384E+02     ; C-C-H, prebuilt c3-c3-hc
   18      29      69         1       109.800      3.874384E+02     ; C-C-H, prebuilt c3-c3-hc
   34      29      68         1       109.800      3.874384E+02     ; C-C-H, prebuilt c3-c3-hc
   34      29      69         1       109.800      3.874384E+02     ; C-C-H, prebuilt c3-c3-hc
   68      29      69         1       107.580      3.296992E+02     ; H-C-H, prebuilt hc-c3-hc
   27      30      28         1       111.510      5.263472E+02     ; C-C-C, prebuilt c3-c3-c3
   27      30      70         1       109.800      3.874384E+02     ; C-C-H, prebuilt c3-c3-hc
   27      30      71         1       109.800      3.874384E+02     ; C-C-H, prebuilt c3-c3-hc
   28      30      70         1       109.800      3.874384E+02     ; C-C-H, prebuilt c3-c3-hc
   28      30      71         1       109.800      3.874384E+02     ; C-C-H, prebuilt c3-c3-hc
   70      30      71         1       107.580      3.296992E+02     ; H-C-H, prebuilt hc-c3-hc
    1      31      23         1       107.970      5.690240E+02     ; O-C-C, prebuilt c3-c3-os
    1      31      34         1       107.970      5.690240E+02     ; O-C-C, prebuilt c3-c3-os
    1      31      72         1       109.780      4.250944E+02     ; O-C-H, prebuilt h1-c3-os
   23      31      34         1       111.510      5.263472E+02     ; C-C-C, prebuilt c3-c3-c3
   23      31      72         1       109.560      3.882752E+02     ; C-C-H, prebuilt c3-c3-h1
   34      31      72         1       109.560      3.882752E+02     ; C-C-H, prebuilt c3-c3-h1
    2      32      19         1       123.200      5.640032E+02     ; O-C-C, prebuilt c3-c-o
    2      32      37         1       123.200      5.757184E+02     ; O-C-C, prebuilt ce-c-o
   19      32      37         1       116.440      5.263472E+02     ; C-C-C, prebuilt c3-c-ce
   17      33      73         1       109.800      3.874384E+02     ; C-C-H, prebuilt c3-c3-hc
   17      33      74         1       109.800      3.874384E+02     ; C-C-H, prebuilt c3-c3-hc
   17      33      75         1       109.800      3.874384E+02     ; C-C-H, prebuilt c3-c3-hc
   73      33      74         1       107.580      3.296992E+02     ; H-C-H, prebuilt hc-c3-hc
   73      33      75         1       107.580      3.296992E+02     ; H-C-H, prebuilt hc-c3-hc
   74      33      75         1       107.580      3.296992E+02     ; H-C-H, prebuilt hc-c3-hc
   29      34      31         1       111.510      5.263472E+02     ; C-C-C, prebuilt c3-c3-c3
   29      34      76         1       109.800      3.874384E+02     ; C-C-H, prebuilt c3-c3-hc
   29      34      77         1       109.800      3.874384E+02     ; C-C-H, prebuilt c3-c3-hc
   31      34      76         1       109.800      3.874384E+02     ; C-C-H, prebuilt c3-c3-hc
   31      34      77         1       109.800      3.874384E+02     ; C-C-H, prebuilt c3-c3-hc
   76      34      77         1       107.580      3.296992E+02     ; H-C-H, prebuilt hc-c3-hc
   18      35      78         1       109.800      3.874384E+02     ; C-C-H, prebuilt c3-c3-hc
   18      35      79         1       109.800      3.874384E+02     ; C-C-H, prebuilt c3-c3-hc
   18      35      80         1       109.800      3.874384E+02     ; C-C-H, prebuilt c3-c3-hc
   78      35      79         1       107.580      3.296992E+02     ; H-C-H, prebuilt hc-c3-hc
   78      35      80         1       107.580      3.296992E+02     ; H-C-H, prebuilt hc-c3-hc
   79      35      80         1       107.580      3.296992E+02     ; H-C-H, prebuilt hc-c3-hc
   20      36      81         1       109.800      3.874384E+02     ; C-C-H, prebuilt c3-c3-hc
   20      36      82         1       109.800      3.874384E+02     ; C-C-H, prebuilt c3-c3-hc
   20      36      83         1       109.800      3.874384E+02     ; C-C-H, prebuilt c3-c3-hc
   81      36      82         1       107.580      3.296992E+02     ; H-C-H, prebuilt hc-c3-hc
   81      36      83         1       107.580      3.296992E+02     ; H-C-H, prebuilt hc-c3-hc
   82      36      83         1       107.580      3.296992E+02     ; H-C-H, prebuilt hc-c3-hc
   25      37      32         1       120.420      5.481040E+02     ; C-C-C, prebuilt c-ce-c2
   25      37      84         1       119.940      4.150528E+02     ; C-C-H, prebuilt c2-ce-ha
   32      37      84         1       116.460      3.891120E+02     ; C-C-H, prebuilt c-ce-ha
   26      38      40         1       111.510      5.263472E+02     ; C-C-C, prebuilt c3-c3-c3
   26      38      85         1       109.800      3.874384E+02     ; C-C-H, prebuilt c3-c3-hc
   26      38      86         1       109.800      3.874384E+02     ; C-C-H, prebuilt c3-c3-hc
   40      38      85         1       109.800      3.874384E+02     ; C-C-H, prebuilt c3-c3-hc
   40      38      86         1       109.800      3.874384E+02     ; C-C-H, prebuilt c3-c3-hc
   85      38      86         1       107.580      3.296992E+02     ; H-C-H, prebuilt hc-c3-hc
   27      39      43         1       111.510      5.263472E+02     ; C-C-C, prebuilt c3-c3-c3
   27      39      87         1       109.800      3.874384E+02     ; C-C-H, prebuilt c3-c3-hc
   27      39      88         1       109.800      3.874384E+02     ; C-C-H, prebuilt c3-c3-hc
   43      39      87         1       109.800      3.874384E+02     ; C-C-H, prebuilt c3-c3-hc
   43      39      88         1       109.800      3.874384E+02     ; C-C-H, prebuilt c3-c3-hc
   87      39      88         1       107.580      3.296992E+02     ; H-C-H, prebuilt hc-c3-hc
   38      40      43         1       111.510      5.263472E+02     ; C-C-C, prebuilt c3-c3-c3
   38      40      45         1       111.510      5.263472E+02     ; C-C-C, prebuilt c3-c3-c3
   38      40      46         1       111.040      5.296944E+02     ; C-C-C, prebuilt c-c3-c3
   43      40      45         1       111.510      5.263472E+02     ; C-C-C, prebuilt c3-c3-c3
   43      40      46         1       111.040      5.296944E+02     ; C-C-C, prebuilt c-c3-c3
   45      40      46         1       111.040      5.296944E+02     ; C-C-C, prebuilt c-c3-c3
   23      41      89         1       109.800      3.874384E+02     ; C-C-H, prebuilt c3-c3-hc
   23      41      90         1       109.800      3.874384E+02     ; C-C-H, prebuilt c3-c3-hc
   23      41      91         1       109.800      3.874384E+02     ; C-C-H, prebuilt c3-c3-hc
   89      41      90         1       107.580      3.296992E+02     ; H-C-H, prebuilt hc-c3-hc
   89      41      91         1       107.580      3.296992E+02     ; H-C-H, prebuilt hc-c3-hc
   90      41      91         1       107.580      3.296992E+02     ; H-C-H, prebuilt hc-c3-hc
   23      42      92         1       109.800      3.874384E+02     ; C-C-H, prebuilt c3-c3-hc
   23      42      93         1       109.800      3.874384E+02     ; C-C-H, prebuilt c3-c3-hc
   23      42      94         1       109.800      3.874384E+02     ; C-C-H, prebuilt c3-c3-hc
   92      42      93         1       107.580      3.296992E+02     ; H-C-H, prebuilt hc-c3-hc
   92      42      94         1       107.580      3.296992E+02     ; H-C-H, prebuilt hc-c3-hc
   93      42      94         1       107.580      3.296992E+02     ; H-C-H, prebuilt hc-c3-hc
   39      43      40         1       111.510      5.263472E+02     ; C-C-C, prebuilt c3-c3-c3
   39      43      95         1       109.800      3.874384E+02     ; C-C-H, prebuilt c3-c3-hc
   39      43      96         1       109.800      3.874384E+02     ; C-C-H, prebuilt c3-c3-hc
   40      43      95         1       109.800      3.874384E+02     ; C-C-H, prebuilt c3-c3-hc
   40      43      96         1       109.800      3.874384E+02     ; C-C-H, prebuilt c3-c3-hc
   95      43      96         1       107.580      3.296992E+02     ; H-C-H, prebuilt hc-c3-hc
   27      44      97         1       109.800      3.874384E+02     ; C-C-H, prebuilt c3-c3-hc
   27      44      98         1       109.800      3.874384E+02     ; C-C-H, prebuilt c3-c3-hc
   27      44      99         1       109.800      3.874384E+02     ; C-C-H, prebuilt c3-c3-hc
   97      44      98         1       107.580      3.296992E+02     ; H-C-H, prebuilt hc-c3-hc
   97      44      99         1       107.580      3.296992E+02     ; H-C-H, prebuilt hc-c3-hc
   98      44      99         1       107.580      3.296992E+02     ; H-C-H, prebuilt hc-c3-hc
   40      45     100         1       109.800      3.874384E+02     ; C-C-H, prebuilt c3-c3-hc
   40      45     101         1       109.800      3.874384E+02     ; C-C-H, prebuilt c3-c3-hc
   40      45     102         1       109.800      3.874384E+02     ; C-C-H, prebuilt c3-c3-hc
  100      45     101         1       107.580      3.296992E+02     ; H-C-H, prebuilt hc-c3-hc
  100      45     102         1       107.580      3.296992E+02     ; H-C-H, prebuilt hc-c3-hc
  101      45     102         1       107.580      3.296992E+02     ; H-C-H, prebuilt hc-c3-hc
    4      46       5         1       122.100      6.351312E+02     ; O-C-O, prebuilt o-c-oh
    4      46      40         1       112.730      5.723712E+02     ; O-C-C, prebuilt c3-c-oh
    5      46      40         1       123.200      5.640032E+02     ; O-C-C, prebuilt c3-c-o
    1      47       3         1       108.290      6.083536E+02     ; O-C-O, prebuilt os-c3-os
    1      47      48         1       107.970      5.690240E+02     ; O-C-C, prebuilt c3-c3-os
    1      47     103         1       109.580      4.259312E+02     ; O-C-H, prebuilt h2-c3-os
    3      47      48         1       107.970      5.690240E+02     ; O-C-C, prebuilt c3-c3-os
    3      47     103         1       109.580      4.259312E+02     ; O-C-H, prebuilt h2-c3-os
   48      47     103         1       110.220      3.866016E+02     ; C-C-H, prebuilt c3-c3-h2
    6      48      47         1       107.970      5.690240E+02     ; O-C-C, prebuilt c3-c3-os
    6      48      49         1       107.970      5.690240E+02     ; O-C-C, prebuilt c3-c3-os
    6      48     104         1       109.780      4.250944E+02     ; O-C-H, prebuilt h1-c3-os
   47      48      49         1       111.510      5.263472E+02     ; C-C-C, prebuilt c3-c3-c3
   47      48     104         1       109.560      3.882752E+02     ; C-C-H, prebuilt c3-c3-h1
   49      48     104         1       109.560      3.882752E+02     ; C-C-H, prebuilt c3-c3-h1
    7      49      48         1       110.190      5.648400E+02     ; O-C-C, prebuilt c3-c3-oh
    7      49      51         1       110.190      5.648400E+02     ; O-C-C, prebuilt c3-c3-oh
    7      49     106         1       110.260      4.259312E+02     ; O-C-H, prebuilt h1-c3-oh
   48      49      51         1       111.510      5.263472E+02     ; C-C-C, prebuilt c3-c3-c3
   48      49     106         1       109.560      3.882752E+02     ; C-C-H, prebuilt c3-c3-h1
   51      49     106         1       109.560      3.882752E+02     ; C-C-H, prebuilt c3-c3-h1
    3      50      51         1       107.970      5.690240E+02     ; O-C-C, prebuilt c3-c3-os
    3      50      53         1       109.210      5.690240E+02     ; O-C-C, prebuilt c-c3-os
    3      50     107         1       109.780      4.250944E+02     ; O-C-H, prebuilt h1-c3-os
   51      50      53         1       111.040      5.296944E+02     ; C-C-C, prebuilt c-c3-c3
   51      50     107         1       109.560      3.882752E+02     ; C-C-H, prebuilt c3-c3-h1
   53      50     107         1       108.220      3.932960E+02     ; C-C-H, prebuilt c-c3-h1
    8      51      49         1       110.190      5.648400E+02     ; O-C-C, prebuilt c3-c3-oh
    8      51      50         1       110.190      5.648400E+02     ; O-C-C, prebuilt c3-c3-oh
    8      51     108         1       110.260      4.259312E+02     ; O-C-H, prebuilt h1-c3-oh
   49      51      50         1       111.510      5.263472E+02     ; C-C-C, prebuilt c3-c3-c3
   49      51     108         1       109.560      3.882752E+02     ; C-C-H, prebuilt c3-c3-h1
   50      51     108         1       109.560      3.882752E+02     ; C-C-H, prebuilt c3-c3-h1
    6      52       9         1       108.290      6.083536E+02     ; O-C-O, prebuilt os-c3-os
    6      52      54         1       107.970      5.690240E+02     ; O-C-C, prebuilt c3-c3-os
    6      52     109         1       109.580      4.259312E+02     ; O-C-H, prebuilt h2-c3-os
    9      52      54         1       107.970      5.690240E+02     ; O-C-C, prebuilt c3-c3-os
    9      52     109         1       109.580      4.259312E+02     ; O-C-H, prebuilt h2-c3-os
   54      52     109         1       110.220      3.866016E+02     ; C-C-H, prebuilt c3-c3-h2
   10      53      11         1       122.100      6.351312E+02     ; O-C-O, prebuilt o-c-oh
   10      53      50         1       112.730      5.723712E+02     ; O-C-C, prebuilt c3-c-oh
   11      53      50         1       123.200      5.640032E+02     ; O-C-C, prebuilt c3-c-o
   12      54      52         1       110.190      5.648400E+02     ; O-C-C, prebuilt c3-c3-oh
   12      54      55         1       110.190      5.648400E+02     ; O-C-C, prebuilt c3-c3-oh
   12      54     112         1       110.260      4.259312E+02     ; O-C-H, prebuilt h1-c3-oh
   52      54      55         1       111.510      5.263472E+02     ; C-C-C, prebuilt c3-c3-c3
   52      54     112         1       109.560      3.882752E+02     ; C-C-H, prebuilt c3-c3-h1
   55      54     112         1       109.560      3.882752E+02     ; C-C-H, prebuilt c3-c3-h1
   13      55      54         1       110.190      5.648400E+02     ; O-C-C, prebuilt c3-c3-oh
   13      55      57         1       110.190      5.648400E+02     ; O-C-C, prebuilt c3-c3-oh
   13      55     113         1       110.260      4.259312E+02     ; O-C-H, prebuilt h1-c3-oh
   54      55      57         1       111.510      5.263472E+02     ; C-C-C, prebuilt c3-c3-c3
   54      55     113         1       109.560      3.882752E+02     ; C-C-H, prebuilt c3-c3-h1
   57      55     113         1       109.560      3.882752E+02     ; C-C-H, prebuilt c3-c3-h1
    9      56      57         1       107.970      5.690240E+02     ; O-C-C, prebuilt c3-c3-os
    9      56      58         1       109.210      5.690240E+02     ; O-C-C, prebuilt c-c3-os
    9      56     114         1       109.780      4.250944E+02     ; O-C-H, prebuilt h1-c3-os
   57      56      58         1       111.040      5.296944E+02     ; C-C-C, prebuilt c-c3-c3
   57      56     114         1       109.560      3.882752E+02     ; C-C-H, prebuilt c3-c3-h1
   58      56     114         1       108.220      3.932960E+02     ; C-C-H, prebuilt c-c3-h1
   14      57      55         1       110.190      5.648400E+02     ; O-C-C, prebuilt c3-c3-oh
   14      57      56         1       110.190      5.648400E+02     ; O-C-C, prebuilt c3-c3-oh
   14      57     116         1       110.260      4.259312E+02     ; O-C-H, prebuilt h1-c3-oh
   55      57      56         1       111.510      5.263472E+02     ; C-C-C, prebuilt c3-c3-c3
   55      57     116         1       109.560      3.882752E+02     ; C-C-H, prebuilt c3-c3-h1
   56      57     116         1       109.560      3.882752E+02     ; C-C-H, prebuilt c3-c3-h1
   15      58      16         1       122.100      6.351312E+02     ; O-C-O, prebuilt o-c-oh
   15      58      56         1       112.730      5.723712E+02     ; O-C-C, prebuilt c3-c-oh
   16      58      56         1       123.200      5.640032E+02     ; O-C-C, prebuilt c3-c-o
 
[ dihedrals ] ; propers
; atom_i  atom_j  atom_k  atom_l  functype   d0 (Deg.)   k (kJ/mol/rad^2)    ; Case of functype=2
; atom_i  atom_j  atom_k  atom_l  functype  phase (Deg.)  kd (kJ/mol) pn     ; Case of functype=9
    1      31      23      21         9         0.000       0.65084    3     ; O-C-C-C, prebuilt X-c3-c3-X
    1      31      23      41         9         0.000       0.65084    3     ; O-C-C-C, prebuilt X-c3-c3-X
    1      31      23      42         9         0.000       0.65084    3     ; O-C-C-C, prebuilt X-c3-c3-X
    1      31      34      29         9         0.000       0.65084    3     ; O-C-C-C, prebuilt X-c3-c3-X
    1      31      34      76         9         0.000       0.00000    3     ; O-C-C-H, prebuilt hc-c3-c3-os
    1      31      34      76         9         0.000       1.04600    1     ; O-C-C-H, prebuilt hc-c3-c3-os
    1      31      34      77         9         0.000       0.00000    3     ; O-C-C-H, prebuilt hc-c3-c3-os
    1      31      34      77         9         0.000       1.04600    1     ; O-C-C-H, prebuilt hc-c3-c3-os
    1      47       3      50         9         0.000       0.41840    3     ; O-C-O-C, prebuilt c3-os-c3-os
    1      47       3      50         9       180.000       3.55640    2     ; O-C-O-C, prebuilt c3-os-c3-os
    1      47       3      50         9       180.000       5.64840    1     ; O-C-O-C, prebuilt c3-os-c3-os
    1      47      48       6         9         0.000       0.60250    3     ; O-C-C-O, prebuilt os-c3-c3-os
    1      47      48       6         9         0.000       4.91620    2     ; O-C-C-O, prebuilt os-c3-c3-os
    1      47      48      49         9         0.000       0.65084    3     ; O-C-C-C, prebuilt X-c3-c3-X
    1      47      48     104         9         0.000       0.00000    3     ; O-C-C-H, prebuilt h1-c3-c3-os
    1      47      48     104         9         0.000       1.04600    1     ; O-C-C-H, prebuilt h1-c3-c3-os
    2      32      19      17         9       180.000       0.00000    2     ; O-C-C-C, prebuilt X-c-c3-X
    2      32      19      18         9       180.000       0.00000    2     ; O-C-C-C, prebuilt X-c-c3-X
    2      32      19      59         9         0.000       3.34720    1     ; O-C-C-H, prebuilt hc-c3-c-o
    2      32      19      59         9         0.000       0.00000    2     ; O-C-C-H, prebuilt hc-c3-c-o
    2      32      19      59         9       180.000       0.33472    3     ; O-C-C-H, prebuilt hc-c3-c-o
    2      32      37      25         9       180.000       9.10020    2     ; O-C-C-C, prebuilt X-c-ce-X
    2      32      37      84         9       180.000       9.10020    2     ; O-C-C-H, prebuilt X-c-ce-X
    3      47       1      31         9         0.000       0.41840    3     ; O-C-O-C, prebuilt c3-os-c3-os
    3      47       1      31         9       180.000       3.55640    2     ; O-C-O-C, prebuilt c3-os-c3-os
    3      47       1      31         9       180.000       5.64840    1     ; O-C-O-C, prebuilt c3-os-c3-os
    3      47      48       6         9         0.000       0.60250    3     ; O-C-C-O, prebuilt os-c3-c3-os
    3      47      48       6         9         0.000       4.91620    2     ; O-C-C-O, prebuilt os-c3-c3-os
    3      47      48      49         9         0.000       0.65084    3     ; O-C-C-C, prebuilt X-c3-c3-X
    3      47      48     104         9         0.000       0.00000    3     ; O-C-C-H, prebuilt h1-c3-c3-os
    3      47      48     104         9         0.000       1.04600    1     ; O-C-C-H, prebuilt h1-c3-c3-os
    3      50      51       8         9         0.000       0.60250    3     ; O-C-C-O, prebuilt os-c3-c3-oh
    3      50      51       8         9         0.000       4.91620    2     ; O-C-C-O, prebuilt os-c3-c3-oh
    3      50      51      49         9         0.000       0.65084    3     ; O-C-C-C, prebuilt X-c3-c3-X
    3      50      51     108         9         0.000       0.00000    3     ; O-C-C-H, prebuilt h1-c3-c3-os
    3      50      51     108         9         0.000       1.04600    1     ; O-C-C-H, prebuilt h1-c3-c3-os
    3      50      53      10         9       180.000       0.00000    2     ; O-C-C-O, prebuilt X-c-c3-X
    3      50      53      11         9       180.000       0.00000    2     ; O-C-C-O, prebuilt X-c-c3-X
    4      46      40      38         9       180.000       0.00000    2     ; O-C-C-C, prebuilt X-c-c3-X
    4      46      40      43         9       180.000       0.00000    2     ; O-C-C-C, prebuilt X-c-c3-X
    4      46      40      45         9       180.000       0.00000    2     ; O-C-C-C, prebuilt X-c-c3-X
    5      46       4     105         9       180.000       9.62320    2     ; O-C-O-H, prebuilt ho-oh-c-o
    5      46       4     105         9         0.000       7.94960    1     ; O-C-O-H, prebuilt ho-oh-c-o
    5      46      40      38         9       180.000       0.00000    2     ; O-C-C-C, prebuilt X-c-c3-X
    5      46      40      43         9       180.000       0.00000    2     ; O-C-C-C, prebuilt X-c-c3-X
    5      46      40      45         9       180.000       0.00000    2     ; O-C-C-C, prebuilt X-c-c3-X
    6      48      47     103         9         0.000       0.65084    3     ; O-C-C-H, prebuilt X-c3-c3-X
    6      48      49       7         9         0.000       0.60250    3     ; O-C-C-O, prebuilt os-c3-c3-oh
    6      48      49       7         9         0.000       4.91620    2     ; O-C-C-O, prebuilt os-c3-c3-oh
    6      48      49      51         9         0.000       0.65084    3     ; O-C-C-C, prebuilt X-c3-c3-X
    6      48      49     106         9         0.000       0.00000    3     ; O-C-C-H, prebuilt h1-c3-c3-os
    6      48      49     106         9         0.000       1.04600    1     ; O-C-C-H, prebuilt h1-c3-c3-os
    6      52       9      56         9         0.000       0.41840    3     ; O-C-O-C, prebuilt c3-os-c3-os
    6      52       9      56         9       180.000       3.55640    2     ; O-C-O-C, prebuilt c3-os-c3-os
    6      52       9      56         9       180.000       5.64840    1     ; O-C-O-C, prebuilt c3-os-c3-os
    6      52      54      12         9         0.000       0.60250    3     ; O-C-C-O, prebuilt os-c3-c3-oh
    6      52      54      12         9         0.000       4.91620    2     ; O-C-C-O, prebuilt os-c3-c3-oh
    6      52      54      55         9         0.000       0.65084    3     ; O-C-C-C, prebuilt X-c3-c3-X
    6      52      54     112         9         0.000       0.00000    3     ; O-C-C-H, prebuilt h1-c3-c3-os
    6      52      54     112         9         0.000       1.04600    1     ; O-C-C-H, prebuilt h1-c3-c3-os
    7      49      48      47         9         0.000       0.65084    3     ; O-C-C-C, prebuilt X-c3-c3-X
    7      49      48     104         9         0.000       0.00000    3     ; O-C-C-H, prebuilt h1-c3-c3-oh
    7      49      48     104         9         0.000       1.04600    1     ; O-C-C-H, prebuilt h1-c3-c3-oh
    7      49      51       8         9         0.000       0.60250    3     ; O-C-C-O, prebuilt oh-c3-c3-oh
    7      49      51       8         9         0.000       4.91620    2     ; O-C-C-O, prebuilt oh-c3-c3-oh
    7      49      51      50         9         0.000       0.65084    3     ; O-C-C-C, prebuilt X-c3-c3-X
    7      49      51     108         9         0.000       0.00000    3     ; O-C-C-H, prebuilt h1-c3-c3-oh
    7      49      51     108         9         0.000       1.04600    1     ; O-C-C-H, prebuilt h1-c3-c3-oh
    8      51      49      48         9         0.000       0.65084    3     ; O-C-C-C, prebuilt X-c3-c3-X
    8      51      49     106         9         0.000       0.00000    3     ; O-C-C-H, prebuilt h1-c3-c3-oh
    8      51      49     106         9         0.000       1.04600    1     ; O-C-C-H, prebuilt h1-c3-c3-oh
    8      51      50      53         9         0.000       0.65084    3     ; O-C-C-C, prebuilt X-c3-c3-X
    8      51      50     107         9         0.000       0.00000    3     ; O-C-C-H, prebuilt h1-c3-c3-oh
    8      51      50     107         9         0.000       1.04600    1     ; O-C-C-H, prebuilt h1-c3-c3-oh
    9      52       6      48         9         0.000       0.41840    3     ; O-C-O-C, prebuilt c3-os-c3-os
    9      52       6      48         9       180.000       3.55640    2     ; O-C-O-C, prebuilt c3-os-c3-os
    9      52       6      48         9       180.000       5.64840    1     ; O-C-O-C, prebuilt c3-os-c3-os
    9      52      54      12         9         0.000       0.60250    3     ; O-C-C-O, prebuilt os-c3-c3-oh
    9      52      54      12         9         0.000       4.91620    2     ; O-C-C-O, prebuilt os-c3-c3-oh
    9      52      54      55         9         0.000       0.65084    3     ; O-C-C-C, prebuilt X-c3-c3-X
    9      52      54     112         9         0.000       0.00000    3     ; O-C-C-H, prebuilt h1-c3-c3-os
    9      52      54     112         9         0.000       1.04600    1     ; O-C-C-H, prebuilt h1-c3-c3-os
    9      56      57      14         9         0.000       0.60250    3     ; O-C-C-O, prebuilt os-c3-c3-oh
    9      56      57      14         9         0.000       4.91620    2     ; O-C-C-O, prebuilt os-c3-c3-oh
    9      56      57      55         9         0.000       0.65084    3     ; O-C-C-C, prebuilt X-c3-c3-X
    9      56      57     116         9         0.000       0.00000    3     ; O-C-C-H, prebuilt h1-c3-c3-os
    9      56      57     116         9         0.000       1.04600    1     ; O-C-C-H, prebuilt h1-c3-c3-os
    9      56      58      15         9       180.000       0.00000    2     ; O-C-C-O, prebuilt X-c-c3-X
    9      56      58      16         9       180.000       0.00000    2     ; O-C-C-O, prebuilt X-c-c3-X
   10      53      50      51         9       180.000       0.00000    2     ; O-C-C-C, prebuilt X-c-c3-X
   10      53      50     107         9       180.000       0.00000    2     ; O-C-C-H, prebuilt X-c-c3-X
   11      53      10     115         9       180.000       9.62320    2     ; O-C-O-H, prebuilt ho-oh-c-o
   11      53      10     115         9         0.000       7.94960    1     ; O-C-O-H, prebuilt ho-oh-c-o
   11      53      50      51         9       180.000       0.00000    2     ; O-C-C-C, prebuilt X-c-c3-X
   11      53      50     107         9         0.000       3.34720    1     ; O-C-C-H, prebuilt h1-c3-c-o
   11      53      50     107         9         0.000       0.00000    2     ; O-C-C-H, prebuilt h1-c3-c-o
   11      53      50     107         9       180.000       0.33472    3     ; O-C-C-H, prebuilt h1-c3-c-o
   12      54      52     109         9         0.000       0.65084    3     ; O-C-C-H, prebuilt X-c3-c3-X
   12      54      55      13         9         0.000       0.60250    3     ; O-C-C-O, prebuilt oh-c3-c3-oh
   12      54      55      13         9         0.000       4.91620    2     ; O-C-C-O, prebuilt oh-c3-c3-oh
   12      54      55      57         9         0.000       0.65084    3     ; O-C-C-C, prebuilt X-c3-c3-X
   12      54      55     113         9         0.000       0.00000    3     ; O-C-C-H, prebuilt h1-c3-c3-oh
   12      54      55     113         9         0.000       1.04600    1     ; O-C-C-H, prebuilt h1-c3-c3-oh
   13      55      54      52         9         0.000       0.65084    3     ; O-C-C-C, prebuilt X-c3-c3-X
   13      55      54     112         9         0.000       0.00000    3     ; O-C-C-H, prebuilt h1-c3-c3-oh
   13      55      54     112         9         0.000       1.04600    1     ; O-C-C-H, prebuilt h1-c3-c3-oh
   13      55      57      14         9         0.000       0.60250    3     ; O-C-C-O, prebuilt oh-c3-c3-oh
   13      55      57      14         9         0.000       4.91620    2     ; O-C-C-O, prebuilt oh-c3-c3-oh
   13      55      57      56         9         0.000       0.65084    3     ; O-C-C-C, prebuilt X-c3-c3-X
   13      55      57     116         9         0.000       0.00000    3     ; O-C-C-H, prebuilt h1-c3-c3-oh
   13      55      57     116         9         0.000       1.04600    1     ; O-C-C-H, prebuilt h1-c3-c3-oh
   14      57      55      54         9         0.000       0.65084    3     ; O-C-C-C, prebuilt X-c3-c3-X
   14      57      55     113         9         0.000       0.00000    3     ; O-C-C-H, prebuilt h1-c3-c3-oh
   14      57      55     113         9         0.000       1.04600    1     ; O-C-C-H, prebuilt h1-c3-c3-oh
   14      57      56      58         9         0.000       0.65084    3     ; O-C-C-C, prebuilt X-c3-c3-X
   14      57      56     114         9         0.000       0.00000    3     ; O-C-C-H, prebuilt h1-c3-c3-oh
   14      57      56     114         9         0.000       1.04600    1     ; O-C-C-H, prebuilt h1-c3-c3-oh
   15      58      56      57         9       180.000       0.00000    2     ; O-C-C-C, prebuilt X-c-c3-X
   15      58      56     114         9       180.000       0.00000    2     ; O-C-C-H, prebuilt X-c-c3-X
   16      58      15     120         9       180.000       9.62320    2     ; O-C-O-H, prebuilt ho-oh-c-o
   16      58      15     120         9         0.000       7.94960    1     ; O-C-O-H, prebuilt ho-oh-c-o
   16      58      56      57         9       180.000       0.00000    2     ; O-C-C-C, prebuilt X-c-c3-X
   16      58      56     114         9         0.000       3.34720    1     ; O-C-C-H, prebuilt h1-c3-c-o
   16      58      56     114         9         0.000       0.00000    2     ; O-C-C-H, prebuilt h1-c3-c-o
   16      58      56     114         9       180.000       0.33472    3     ; O-C-C-H, prebuilt h1-c3-c-o
   17      19      18      21         9         0.000       0.75312    3     ; C-C-C-C, prebuilt c3-c3-c3-c3
   17      19      18      21         9       180.000       1.04600    2     ; C-C-C-C, prebuilt c3-c3-c3-c3
   17      19      18      21         9       180.000       0.83680    1     ; C-C-C-C, prebuilt c3-c3-c3-c3
   17      19      18      29         9         0.000       0.75312    3     ; C-C-C-C, prebuilt c3-c3-c3-c3
   17      19      18      29         9       180.000       1.04600    2     ; C-C-C-C, prebuilt c3-c3-c3-c3
   17      19      18      29         9       180.000       0.83680    1     ; C-C-C-C, prebuilt c3-c3-c3-c3
   17      19      18      35         9         0.000       0.75312    3     ; C-C-C-C, prebuilt c3-c3-c3-c3
   17      19      18      35         9       180.000       1.04600    2     ; C-C-C-C, prebuilt c3-c3-c3-c3
   17      19      18      35         9       180.000       0.83680    1     ; C-C-C-C, prebuilt c3-c3-c3-c3
   17      19      32      37         9       180.000       0.00000    2     ; C-C-C-C, prebuilt X-c-c3-X
   17      20      25      26         9         0.000       0.00000    2     ; C-C-C-C, prebuilt X-c2-c3-X
   17      20      25      37         9         0.000       0.00000    2     ; C-C-C-C, prebuilt X-c2-c3-X
   17      20      28      30         9         0.000       0.75312    3     ; C-C-C-C, prebuilt c3-c3-c3-c3
   17      20      28      30         9       180.000       1.04600    2     ; C-C-C-C, prebuilt c3-c3-c3-c3
   17      20      28      30         9       180.000       0.83680    1     ; C-C-C-C, prebuilt c3-c3-c3-c3
   17      20      28      66         9         0.000       0.66944    3     ; C-C-C-H, prebuilt hc-c3-c3-c3
   17      20      28      67         9         0.000       0.66944    3     ; C-C-C-H, prebuilt hc-c3-c3-c3
   17      20      36      81         9         0.000       0.66944    3     ; C-C-C-H, prebuilt hc-c3-c3-c3
   17      20      36      82         9         0.000       0.66944    3     ; C-C-C-H, prebuilt hc-c3-c3-c3
   17      20      36      83         9         0.000       0.66944    3     ; C-C-C-H, prebuilt hc-c3-c3-c3
   17      22      24      21         9         0.000       0.75312    3     ; C-C-C-C, prebuilt c3-c3-c3-c3
   17      22      24      21         9       180.000       1.04600    2     ; C-C-C-C, prebuilt c3-c3-c3-c3
   17      22      24      21         9       180.000       0.83680    1     ; C-C-C-C, prebuilt c3-c3-c3-c3
   17      22      24      63         9         0.000       0.66944    3     ; C-C-C-H, prebuilt hc-c3-c3-c3
   17      22      24      64         9         0.000       0.66944    3     ; C-C-C-H, prebuilt hc-c3-c3-c3
   18      19      17      20         9         0.000       0.75312    3     ; C-C-C-C, prebuilt c3-c3-c3-c3
   18      19      17      20         9       180.000       1.04600    2     ; C-C-C-C, prebuilt c3-c3-c3-c3
   18      19      17      20         9       180.000       0.83680    1     ; C-C-C-C, prebuilt c3-c3-c3-c3
   18      19      17      22         9         0.000       0.75312    3     ; C-C-C-C, prebuilt c3-c3-c3-c3
   18      19      17      22         9       180.000       1.04600    2     ; C-C-C-C, prebuilt c3-c3-c3-c3
   18      19      17      22         9       180.000       0.83680    1     ; C-C-C-C, prebuilt c3-c3-c3-c3
   18      19      17      33         9         0.000       0.75312    3     ; C-C-C-C, prebuilt c3-c3-c3-c3
   18      19      17      33         9       180.000       1.04600    2     ; C-C-C-C, prebuilt c3-c3-c3-c3
   18      19      17      33         9       180.000       0.83680    1     ; C-C-C-C, prebuilt c3-c3-c3-c3
   18      19      32      37         9       180.000       0.00000    2     ; C-C-C-C, prebuilt X-c-c3-X
   18      21      23      31         9         0.000       0.75312    3     ; C-C-C-C, prebuilt c3-c3-c3-c3
   18      21      23      31         9       180.000       1.04600    2     ; C-C-C-C, prebuilt c3-c3-c3-c3
   18      21      23      31         9       180.000       0.83680    1     ; C-C-C-C, prebuilt c3-c3-c3-c3
   18      21      23      41         9         0.000       0.75312    3     ; C-C-C-C, prebuilt c3-c3-c3-c3
   18      21      23      41         9       180.000       1.04600    2     ; C-C-C-C, prebuilt c3-c3-c3-c3
   18      21      23      41         9       180.000       0.83680    1     ; C-C-C-C, prebuilt c3-c3-c3-c3
   18      21      23      42         9         0.000       0.75312    3     ; C-C-C-C, prebuilt c3-c3-c3-c3
   18      21      23      42         9       180.000       1.04600    2     ; C-C-C-C, prebuilt c3-c3-c3-c3
   18      21      23      42         9       180.000       0.83680    1     ; C-C-C-C, prebuilt c3-c3-c3-c3
   18      21      24      22         9         0.000       0.75312    3     ; C-C-C-C, prebuilt c3-c3-c3-c3
   18      21      24      22         9       180.000       1.04600    2     ; C-C-C-C, prebuilt c3-c3-c3-c3
   18      21      24      22         9       180.000       0.83680    1     ; C-C-C-C, prebuilt c3-c3-c3-c3
   18      21      24      63         9         0.000       0.66944    3     ; C-C-C-H, prebuilt hc-c3-c3-c3
   18      21      24      64         9         0.000       0.66944    3     ; C-C-C-H, prebuilt hc-c3-c3-c3
   18      29      34      31         9         0.000       0.75312    3     ; C-C-C-C, prebuilt c3-c3-c3-c3
   18      29      34      31         9       180.000       1.04600    2     ; C-C-C-C, prebuilt c3-c3-c3-c3
   18      29      34      31         9       180.000       0.83680    1     ; C-C-C-C, prebuilt c3-c3-c3-c3
   18      29      34      76         9         0.000       0.66944    3     ; C-C-C-H, prebuilt hc-c3-c3-c3
   18      29      34      77         9         0.000       0.66944    3     ; C-C-C-H, prebuilt hc-c3-c3-c3
   19      17      20      25         9         0.000       0.65084    3     ; C-C-C-C, prebuilt X-c3-c3-X
   19      17      20      28         9         0.000       0.75312    3     ; C-C-C-C, prebuilt c3-c3-c3-c3
   19      17      20      28         9       180.000       1.04600    2     ; C-C-C-C, prebuilt c3-c3-c3-c3
   19      17      20      28         9       180.000       0.83680    1     ; C-C-C-C, prebuilt c3-c3-c3-c3
   19      17      20      36         9         0.000       0.75312    3     ; C-C-C-C, prebuilt c3-c3-c3-c3
   19      17      20      36         9       180.000       1.04600    2     ; C-C-C-C, prebuilt c3-c3-c3-c3
   19      17      20      36         9       180.000       0.83680    1     ; C-C-C-C, prebuilt c3-c3-c3-c3
   19      17      22      24         9         0.000       0.75312    3     ; C-C-C-C, prebuilt c3-c3-c3-c3
   19      17      22      24         9       180.000       1.04600    2     ; C-C-C-C, prebuilt c3-c3-c3-c3
   19      17      22      24         9       180.000       0.83680    1     ; C-C-C-C, prebuilt c3-c3-c3-c3
   19      17      22      61         9         0.000       0.66944    3     ; C-C-C-H, prebuilt hc-c3-c3-c3
   19      17      22      62         9         0.000       0.66944    3     ; C-C-C-H, prebuilt hc-c3-c3-c3
   19      17      33      73         9         0.000       0.66944    3     ; C-C-C-H, prebuilt hc-c3-c3-c3
   19      17      33      74         9         0.000       0.66944    3     ; C-C-C-H, prebuilt hc-c3-c3-c3
   19      17      33      75         9         0.000       0.66944    3     ; C-C-C-H, prebuilt hc-c3-c3-c3
   19      18      21      23         9         0.000       0.75312    3     ; C-C-C-C, prebuilt c3-c3-c3-c3
   19      18      21      23         9       180.000       1.04600    2     ; C-C-C-C, prebuilt c3-c3-c3-c3
   19      18      21      23         9       180.000       0.83680    1     ; C-C-C-C, prebuilt c3-c3-c3-c3
   19      18      21      24         9         0.000       0.75312    3     ; C-C-C-C, prebuilt c3-c3-c3-c3
   19      18      21      24         9       180.000       1.04600    2     ; C-C-C-C, prebuilt c3-c3-c3-c3
   19      18      21      24         9       180.000       0.83680    1     ; C-C-C-C, prebuilt c3-c3-c3-c3
   19      18      21      60         9         0.000       0.66944    3     ; C-C-C-H, prebuilt hc-c3-c3-c3
   19      18      29      34         9         0.000       0.75312    3     ; C-C-C-C, prebuilt c3-c3-c3-c3
   19      18      29      34         9       180.000       1.04600    2     ; C-C-C-C, prebuilt c3-c3-c3-c3
   19      18      29      34         9       180.000       0.83680    1     ; C-C-C-C, prebuilt c3-c3-c3-c3
   19      18      29      68         9         0.000       0.66944    3     ; C-C-C-H, prebuilt hc-c3-c3-c3
   19      18      29      69         9         0.000       0.66944    3     ; C-C-C-H, prebuilt hc-c3-c3-c3
   19      18      35      78         9         0.000       0.66944    3     ; C-C-C-H, prebuilt hc-c3-c3-c3
   19      18      35      79         9         0.000       0.66944    3     ; C-C-C-H, prebuilt hc-c3-c3-c3
   19      18      35      80         9         0.000       0.66944    3     ; C-C-C-H, prebuilt hc-c3-c3-c3
   19      32      37      25         9       180.000       9.10020    2     ; C-C-C-C, prebuilt X-c-ce-X
   19      32      37      84         9       180.000       9.10020    2     ; C-C-C-H, prebuilt X-c-ce-X
   20      17      19      32         9         0.000       0.65084    3     ; C-C-C-C, prebuilt X-c3-c3-X
   20      17      19      59         9         0.000       0.66944    3     ; C-C-C-H, prebuilt hc-c3-c3-c3
   20      17      22      24         9         0.000       0.75312    3     ; C-C-C-C, prebuilt c3-c3-c3-c3
   20      17      22      24         9       180.000       1.04600    2     ; C-C-C-C, prebuilt c3-c3-c3-c3
   20      17      22      24         9       180.000       0.83680    1     ; C-C-C-C, prebuilt c3-c3-c3-c3
   20      17      22      61         9         0.000       0.66944    3     ; C-C-C-H, prebuilt hc-c3-c3-c3
   20      17      22      62         9         0.000       0.66944    3     ; C-C-C-H, prebuilt hc-c3-c3-c3
   20      17      33      73         9         0.000       0.66944    3     ; C-C-C-H, prebuilt hc-c3-c3-c3
   20      17      33      74         9         0.000       0.66944    3     ; C-C-C-H, prebuilt hc-c3-c3-c3
   20      17      33      75         9         0.000       0.66944    3     ; C-C-C-H, prebuilt hc-c3-c3-c3
   20      25      26      27         9         0.000       0.00000    2     ; C-C-C-C, prebuilt X-c2-c3-X
   20      25      26      38         9         0.000       0.00000    2     ; C-C-C-C, prebuilt X-c2-c3-X
   20      25      26      65         9         0.000       0.00000    2     ; C-C-C-H, prebuilt X-c2-c3-X
   20      25      37      32         9       180.000      27.82360    2     ; C-C-C-C, prebuilt X-c2-ce-X
   20      25      37      84         9       180.000      27.82360    2     ; C-C-C-H, prebuilt X-c2-ce-X
   20      28      30      27         9         0.000       0.75312    3     ; C-C-C-C, prebuilt c3-c3-c3-c3
   20      28      30      27         9       180.000       1.04600    2     ; C-C-C-C, prebuilt c3-c3-c3-c3
   20      28      30      27         9       180.000       0.83680    1     ; C-C-C-C, prebuilt c3-c3-c3-c3
   20      28      30      70         9         0.000       0.66944    3     ; C-C-C-H, prebuilt hc-c3-c3-c3
   20      28      30      71         9         0.000       0.66944    3     ; C-C-C-H, prebuilt hc-c3-c3-c3
   21      18      19      32         9         0.000       0.65084    3     ; C-C-C-C, prebuilt X-c3-c3-X
   21      18      19      59         9         0.000       0.66944    3     ; C-C-C-H, prebuilt hc-c3-c3-c3
   21      18      29      34         9         0.000       0.75312    3     ; C-C-C-C, prebuilt c3-c3-c3-c3
   21      18      29      34         9       180.000       1.04600    2     ; C-C-C-C, prebuilt c3-c3-c3-c3
   21      18      29      34         9       180.000       0.83680    1     ; C-C-C-C, prebuilt c3-c3-c3-c3
   21      18      29      68         9         0.000       0.66944    3     ; C-C-C-H, prebuilt hc-c3-c3-c3
   21      18      29      69         9         0.000       0.66944    3     ; C-C-C-H, prebuilt hc-c3-c3-c3
   21      18      35      78         9         0.000       0.66944    3     ; C-C-C-H, prebuilt hc-c3-c3-c3
   21      18      35      79         9         0.000       0.66944    3     ; C-C-C-H, prebuilt hc-c3-c3-c3
   21      18      35      80         9         0.000       0.66944    3     ; C-C-C-H, prebuilt hc-c3-c3-c3
   21      23      31      34         9         0.000       0.75312    3     ; C-C-C-C, prebuilt c3-c3-c3-c3
   21      23      31      34         9       180.000       1.04600    2     ; C-C-C-C, prebuilt c3-c3-c3-c3
   21      23      31      34         9       180.000       0.83680    1     ; C-C-C-C, prebuilt c3-c3-c3-c3
   21      23      31      72         9         0.000       0.65084    3     ; C-C-C-H, prebuilt X-c3-c3-X
   21      23      41      89         9         0.000       0.66944    3     ; C-C-C-H, prebuilt hc-c3-c3-c3
   21      23      41      90         9         0.000       0.66944    3     ; C-C-C-H, prebuilt hc-c3-c3-c3
   21      23      41      91         9         0.000       0.66944    3     ; C-C-C-H, prebuilt hc-c3-c3-c3
   21      23      42      92         9         0.000       0.66944    3     ; C-C-C-H, prebuilt hc-c3-c3-c3
   21      23      42      93         9         0.000       0.66944    3     ; C-C-C-H, prebuilt hc-c3-c3-c3
   21      23      42      94         9         0.000       0.66944    3     ; C-C-C-H, prebuilt hc-c3-c3-c3
   21      24      22      61         9         0.000       0.66944    3     ; C-C-C-H, prebuilt hc-c3-c3-c3
   21      24      22      62         9         0.000       0.66944    3     ; C-C-C-H, prebuilt hc-c3-c3-c3
   22      17      19      32         9         0.000       0.65084    3     ; C-C-C-C, prebuilt X-c3-c3-X
   22      17      19      59         9         0.000       0.66944    3     ; C-C-C-H, prebuilt hc-c3-c3-c3
   22      17      20      25         9         0.000       0.65084    3     ; C-C-C-C, prebuilt X-c3-c3-X
   22      17      20      28         9         0.000       0.75312    3     ; C-C-C-C, prebuilt c3-c3-c3-c3
   22      17      20      28         9       180.000       1.04600    2     ; C-C-C-C, prebuilt c3-c3-c3-c3
   22      17      20      28         9       180.000       0.83680    1     ; C-C-C-C, prebuilt c3-c3-c3-c3
   22      17      20      36         9         0.000       0.75312    3     ; C-C-C-C, prebuilt c3-c3-c3-c3
   22      17      20      36         9       180.000       1.04600    2     ; C-C-C-C, prebuilt c3-c3-c3-c3
   22      17      20      36         9       180.000       0.83680    1     ; C-C-C-C, prebuilt c3-c3-c3-c3
   22      17      33      73         9         0.000       0.66944    3     ; C-C-C-H, prebuilt hc-c3-c3-c3
   22      17      33      74         9         0.000       0.66944    3     ; C-C-C-H, prebuilt hc-c3-c3-c3
   22      17      33      75         9         0.000       0.66944    3     ; C-C-C-H, prebuilt hc-c3-c3-c3
   22      24      21      23         9         0.000       0.75312    3     ; C-C-C-C, prebuilt c3-c3-c3-c3
   22      24      21      23         9       180.000       1.04600    2     ; C-C-C-C, prebuilt c3-c3-c3-c3
   22      24      21      23         9       180.000       0.83680    1     ; C-C-C-C, prebuilt c3-c3-c3-c3
   22      24      21      60         9         0.000       0.66944    3     ; C-C-C-H, prebuilt hc-c3-c3-c3
   23      21      18      29         9         0.000       0.75312    3     ; C-C-C-C, prebuilt c3-c3-c3-c3
   23      21      18      29         9       180.000       1.04600    2     ; C-C-C-C, prebuilt c3-c3-c3-c3
   23      21      18      29         9       180.000       0.83680    1     ; C-C-C-C, prebuilt c3-c3-c3-c3
   23      21      18      35         9         0.000       0.75312    3     ; C-C-C-C, prebuilt c3-c3-c3-c3
   23      21      18      35         9       180.000       1.04600    2     ; C-C-C-C, prebuilt c3-c3-c3-c3
   23      21      18      35         9       180.000       0.83680    1     ; C-C-C-C, prebuilt c3-c3-c3-c3
   23      21      24      63         9         0.000       0.66944    3     ; C-C-C-H, prebuilt hc-c3-c3-c3
   23      21      24      64         9         0.000       0.66944    3     ; C-C-C-H, prebuilt hc-c3-c3-c3
   23      31       1      47         9         0.000       1.60247    3     ; C-C-O-C, prebuilt c3-c3-os-c3
   23      31       1      47         9       180.000       0.41840    2     ; C-C-O-C, prebuilt c3-c3-os-c3
   23      31      34      29         9         0.000       0.75312    3     ; C-C-C-C, prebuilt c3-c3-c3-c3
   23      31      34      29         9       180.000       1.04600    2     ; C-C-C-C, prebuilt c3-c3-c3-c3
   23      31      34      29         9       180.000       0.83680    1     ; C-C-C-C, prebuilt c3-c3-c3-c3
   23      31      34      76         9         0.000       0.66944    3     ; C-C-C-H, prebuilt hc-c3-c3-c3
   23      31      34      77         9         0.000       0.66944    3     ; C-C-C-H, prebuilt hc-c3-c3-c3
   24      21      18      29         9         0.000       0.75312    3     ; C-C-C-C, prebuilt c3-c3-c3-c3
   24      21      18      29         9       180.000       1.04600    2     ; C-C-C-C, prebuilt c3-c3-c3-c3
   24      21      18      29         9       180.000       0.83680    1     ; C-C-C-C, prebuilt c3-c3-c3-c3
   24      21      18      35         9         0.000       0.75312    3     ; C-C-C-C, prebuilt c3-c3-c3-c3
   24      21      18      35         9       180.000       1.04600    2     ; C-C-C-C, prebuilt c3-c3-c3-c3
   24      21      18      35         9       180.000       0.83680    1     ; C-C-C-C, prebuilt c3-c3-c3-c3
   24      21      23      31         9         0.000       0.75312    3     ; C-C-C-C, prebuilt c3-c3-c3-c3
   24      21      23      31         9       180.000       1.04600    2     ; C-C-C-C, prebuilt c3-c3-c3-c3
   24      21      23      31         9       180.000       0.83680    1     ; C-C-C-C, prebuilt c3-c3-c3-c3
   24      21      23      41         9         0.000       0.75312    3     ; C-C-C-C, prebuilt c3-c3-c3-c3
   24      21      23      41         9       180.000       1.04600    2     ; C-C-C-C, prebuilt c3-c3-c3-c3
   24      21      23      41         9       180.000       0.83680    1     ; C-C-C-C, prebuilt c3-c3-c3-c3
   24      21      23      42         9         0.000       0.75312    3     ; C-C-C-C, prebuilt c3-c3-c3-c3
   24      21      23      42         9       180.000       1.04600    2     ; C-C-C-C, prebuilt c3-c3-c3-c3
   24      21      23      42         9       180.000       0.83680    1     ; C-C-C-C, prebuilt c3-c3-c3-c3
   24      22      17      33         9         0.000       0.75312    3     ; C-C-C-C, prebuilt c3-c3-c3-c3
   24      22      17      33         9       180.000       1.04600    2     ; C-C-C-C, prebuilt c3-c3-c3-c3
   24      22      17      33         9       180.000       0.83680    1     ; C-C-C-C, prebuilt c3-c3-c3-c3
   25      20      17      33         9         0.000       0.65084    3     ; C-C-C-C, prebuilt X-c3-c3-X
   25      20      28      30         9         0.000       0.65084    3     ; C-C-C-C, prebuilt X-c3-c3-X
   25      20      28      66         9         0.000       0.65084    3     ; C-C-C-H, prebuilt X-c3-c3-X
   25      20      28      67         9         0.000       0.65084    3     ; C-C-C-H, prebuilt X-c3-c3-X
   25      20      36      81         9         0.000       0.65084    3     ; C-C-C-H, prebuilt X-c3-c3-X
   25      20      36      82         9         0.000       0.65084    3     ; C-C-C-H, prebuilt X-c3-c3-X
   25      20      36      83         9         0.000       0.65084    3     ; C-C-C-H, prebuilt X-c3-c3-X
   25      26      27      30         9         0.000       0.65084    3     ; C-C-C-C, prebuilt X-c3-c3-X
   25      26      27      39         9         0.000       0.65084    3     ; C-C-C-C, prebuilt X-c3-c3-X
   25      26      27      44         9         0.000       0.65084    3     ; C-C-C-C, prebuilt X-c3-c3-X
   25      26      38      40         9         0.000       0.65084    3     ; C-C-C-C, prebuilt X-c3-c3-X
   25      26      38      85         9         0.000       0.65084    3     ; C-C-C-H, prebuilt X-c3-c3-X
   25      26      38      86         9         0.000       0.65084    3     ; C-C-C-H, prebuilt X-c3-c3-X
   26      25      20      28         9         0.000       0.00000    2     ; C-C-C-C, prebuilt X-c2-c3-X
   26      25      20      36         9         0.000       0.00000    2     ; C-C-C-C, prebuilt X-c2-c3-X
   26      25      37      32         9       180.000      27.82360    2     ; C-C-C-C, prebuilt X-c2-ce-X
   26      25      37      84         9       180.000      27.82360    2     ; C-C-C-H, prebuilt X-c2-ce-X
   26      27      30      28         9         0.000       0.75312    3     ; C-C-C-C, prebuilt c3-c3-c3-c3
   26      27      30      28         9       180.000       1.04600    2     ; C-C-C-C, prebuilt c3-c3-c3-c3
   26      27      30      28         9       180.000       0.83680    1     ; C-C-C-C, prebuilt c3-c3-c3-c3
   26      27      30      70         9         0.000       0.66944    3     ; C-C-C-H, prebuilt hc-c3-c3-c3
   26      27      30      71         9         0.000       0.66944    3     ; C-C-C-H, prebuilt hc-c3-c3-c3
   26      27      39      43         9         0.000       0.75312    3     ; C-C-C-C, prebuilt c3-c3-c3-c3
   26      27      39      43         9       180.000       1.04600    2     ; C-C-C-C, prebuilt c3-c3-c3-c3
   26      27      39      43         9       180.000       0.83680    1     ; C-C-C-C, prebuilt c3-c3-c3-c3
   26      27      39      87         9         0.000       0.66944    3     ; C-C-C-H, prebuilt hc-c3-c3-c3
   26      27      39      88         9         0.000       0.66944    3     ; C-C-C-H, prebuilt hc-c3-c3-c3
   26      27      44      97         9         0.000       0.66944    3     ; C-C-C-H, prebuilt hc-c3-c3-c3
   26      27      44      98         9         0.000       0.66944    3     ; C-C-C-H, prebuilt hc-c3-c3-c3
   26      27      44      99         9         0.000       0.66944    3     ; C-C-C-H, prebuilt hc-c3-c3-c3
   26      38      40      43         9         0.000       0.75312    3     ; C-C-C-C, prebuilt c3-c3-c3-c3
   26      38      40      43         9       180.000       1.04600    2     ; C-C-C-C, prebuilt c3-c3-c3-c3
   26      38      40      43         9       180.000       0.83680    1     ; C-C-C-C, prebuilt c3-c3-c3-c3
   26      38      40      45         9         0.000       0.75312    3     ; C-C-C-C, prebuilt c3-c3-c3-c3
   26      38      40      45         9       180.000       1.04600    2     ; C-C-C-C, prebuilt c3-c3-c3-c3
   26      38      40      45         9       180.000       0.83680    1     ; C-C-C-C, prebuilt c3-c3-c3-c3
   26      38      40      46         9         0.000       0.65084    3     ; C-C-C-C, prebuilt X-c3-c3-X
   27      26      25      37         9         0.000       0.00000    2     ; C-C-C-C, prebuilt X-c2-c3-X
   27      26      38      40         9         0.000       0.75312    3     ; C-C-C-C, prebuilt c3-c3-c3-c3
   27      26      38      40         9       180.000       1.04600    2     ; C-C-C-C, prebuilt c3-c3-c3-c3
   27      26      38      40         9       180.000       0.83680    1     ; C-C-C-C, prebuilt c3-c3-c3-c3
   27      26      38      85         9         0.000       0.66944    3     ; C-C-C-H, prebuilt hc-c3-c3-c3
   27      26      38      86         9         0.000       0.66944    3     ; C-C-C-H, prebuilt hc-c3-c3-c3
   27      30      28      66         9         0.000       0.66944    3     ; C-C-C-H, prebuilt hc-c3-c3-c3
   27      30      28      67         9         0.000       0.66944    3     ; C-C-C-H, prebuilt hc-c3-c3-c3
   27      39      43      40         9         0.000       0.75312    3     ; C-C-C-C, prebuilt c3-c3-c3-c3
   27      39      43      40         9       180.000       1.04600    2     ; C-C-C-C, prebuilt c3-c3-c3-c3
   27      39      43      40         9       180.000       0.83680    1     ; C-C-C-C, prebuilt c3-c3-c3-c3
   27      39      43      95         9         0.000       0.66944    3     ; C-C-C-H, prebuilt hc-c3-c3-c3
   27      39      43      96         9         0.000       0.66944    3     ; C-C-C-H, prebuilt hc-c3-c3-c3
   28      20      17      33         9         0.000       0.75312    3     ; C-C-C-C, prebuilt c3-c3-c3-c3
   28      20      17      33         9       180.000       1.04600    2     ; C-C-C-C, prebuilt c3-c3-c3-c3
   28      20      17      33         9       180.000       0.83680    1     ; C-C-C-C, prebuilt c3-c3-c3-c3
   28      20      25      37         9         0.000       0.00000    2     ; C-C-C-C, prebuilt X-c2-c3-X
   28      20      36      81         9         0.000       0.66944    3     ; C-C-C-H, prebuilt hc-c3-c3-c3
   28      20      36      82         9         0.000       0.66944    3     ; C-C-C-H, prebuilt hc-c3-c3-c3
   28      20      36      83         9         0.000       0.66944    3     ; C-C-C-H, prebuilt hc-c3-c3-c3
   28      30      27      39         9         0.000       0.75312    3     ; C-C-C-C, prebuilt c3-c3-c3-c3
   28      30      27      39         9       180.000       1.04600    2     ; C-C-C-C, prebuilt c3-c3-c3-c3
   28      30      27      39         9       180.000       0.83680    1     ; C-C-C-C, prebuilt c3-c3-c3-c3
   28      30      27      44         9         0.000       0.75312    3     ; C-C-C-C, prebuilt c3-c3-c3-c3
   28      30      27      44         9       180.000       1.04600    2     ; C-C-C-C, prebuilt c3-c3-c3-c3
   28      30      27      44         9       180.000       0.83680    1     ; C-C-C-C, prebuilt c3-c3-c3-c3
   29      18      19      32         9         0.000       0.65084    3     ; C-C-C-C, prebuilt X-c3-c3-X
   29      18      19      59         9         0.000       0.66944    3     ; C-C-C-H, prebuilt hc-c3-c3-c3
   29      18      21      60         9         0.000       0.66944    3     ; C-C-C-H, prebuilt hc-c3-c3-c3
   29      18      35      78         9         0.000       0.66944    3     ; C-C-C-H, prebuilt hc-c3-c3-c3
   29      18      35      79         9         0.000       0.66944    3     ; C-C-C-H, prebuilt hc-c3-c3-c3
   29      18      35      80         9         0.000       0.66944    3     ; C-C-C-H, prebuilt hc-c3-c3-c3
   29      34      31      72         9         0.000       0.65084    3     ; C-C-C-H, prebuilt X-c3-c3-X
   30      27      26      38         9         0.000       0.75312    3     ; C-C-C-C, prebuilt c3-c3-c3-c3
   30      27      26      38         9       180.000       1.04600    2     ; C-C-C-C, prebuilt c3-c3-c3-c3
   30      27      26      38         9       180.000       0.83680    1     ; C-C-C-C, prebuilt c3-c3-c3-c3
   30      27      26      65         9         0.000       0.66944    3     ; C-C-C-H, prebuilt hc-c3-c3-c3
   30      27      39      43         9         0.000       0.75312    3     ; C-C-C-C, prebuilt c3-c3-c3-c3
   30      27      39      43         9       180.000       1.04600    2     ; C-C-C-C, prebuilt c3-c3-c3-c3
   30      27      39      43         9       180.000       0.83680    1     ; C-C-C-C, prebuilt c3-c3-c3-c3
   30      27      39      87         9         0.000       0.66944    3     ; C-C-C-H, prebuilt hc-c3-c3-c3
   30      27      39      88         9         0.000       0.66944    3     ; C-C-C-H, prebuilt hc-c3-c3-c3
   30      27      44      97         9         0.000       0.66944    3     ; C-C-C-H, prebuilt hc-c3-c3-c3
   30      27      44      98         9         0.000       0.66944    3     ; C-C-C-H, prebuilt hc-c3-c3-c3
   30      27      44      99         9         0.000       0.66944    3     ; C-C-C-H, prebuilt hc-c3-c3-c3
   30      28      20      36         9         0.000       0.75312    3     ; C-C-C-C, prebuilt c3-c3-c3-c3
   30      28      20      36         9       180.000       1.04600    2     ; C-C-C-C, prebuilt c3-c3-c3-c3
   30      28      20      36         9       180.000       0.83680    1     ; C-C-C-C, prebuilt c3-c3-c3-c3
   31       1      47      48         9         0.000       1.60247    3     ; C-O-C-C, prebuilt c3-c3-os-c3
   31       1      47      48         9       180.000       0.41840    2     ; C-O-C-C, prebuilt c3-c3-os-c3
   31       1      47     103         9         0.000       1.60387    3     ; C-O-C-H, prebuilt X-c3-os-X
   31      23      21      60         9         0.000       0.66944    3     ; C-C-C-H, prebuilt hc-c3-c3-c3
   31      23      41      89         9         0.000       0.66944    3     ; C-C-C-H, prebuilt hc-c3-c3-c3
   31      23      41      90         9         0.000       0.66944    3     ; C-C-C-H, prebuilt hc-c3-c3-c3
   31      23      41      91         9         0.000       0.66944    3     ; C-C-C-H, prebuilt hc-c3-c3-c3
   31      23      42      92         9         0.000       0.66944    3     ; C-C-C-H, prebuilt hc-c3-c3-c3
   31      23      42      93         9         0.000       0.66944    3     ; C-C-C-H, prebuilt hc-c3-c3-c3
   31      23      42      94         9         0.000       0.66944    3     ; C-C-C-H, prebuilt hc-c3-c3-c3
   31      34      29      68         9         0.000       0.66944    3     ; C-C-C-H, prebuilt hc-c3-c3-c3
   31      34      29      69         9         0.000       0.66944    3     ; C-C-C-H, prebuilt hc-c3-c3-c3
   32      19      17      33         9         0.000       0.65084    3     ; C-C-C-C, prebuilt X-c3-c3-X
   32      19      18      35         9         0.000       0.65084    3     ; C-C-C-C, prebuilt X-c3-c3-X
   33      17      19      59         9         0.000       0.66944    3     ; C-C-C-H, prebuilt hc-c3-c3-c3
   33      17      20      36         9         0.000       0.75312    3     ; C-C-C-C, prebuilt c3-c3-c3-c3
   33      17      20      36         9       180.000       1.04600    2     ; C-C-C-C, prebuilt c3-c3-c3-c3
   33      17      20      36         9       180.000       0.83680    1     ; C-C-C-C, prebuilt c3-c3-c3-c3
   33      17      22      61         9         0.000       0.66944    3     ; C-C-C-H, prebuilt hc-c3-c3-c3
   33      17      22      62         9         0.000       0.66944    3     ; C-C-C-H, prebuilt hc-c3-c3-c3
   34      29      18      35         9         0.000       0.75312    3     ; C-C-C-C, prebuilt c3-c3-c3-c3
   34      29      18      35         9       180.000       1.04600    2     ; C-C-C-C, prebuilt c3-c3-c3-c3
   34      29      18      35         9       180.000       0.83680    1     ; C-C-C-C, prebuilt c3-c3-c3-c3
   34      31       1      47         9         0.000       1.60247    3     ; C-C-O-C, prebuilt c3-c3-os-c3
   34      31       1      47         9       180.000       0.41840    2     ; C-C-O-C, prebuilt c3-c3-os-c3
   34      31      23      41         9         0.000       0.75312    3     ; C-C-C-C, prebuilt c3-c3-c3-c3
   34      31      23      41         9       180.000       1.04600    2     ; C-C-C-C, prebuilt c3-c3-c3-c3
   34      31      23      41         9       180.000       0.83680    1     ; C-C-C-C, prebuilt c3-c3-c3-c3
   34      31      23      42         9         0.000       0.75312    3     ; C-C-C-C, prebuilt c3-c3-c3-c3
   34      31      23      42         9       180.000       1.04600    2     ; C-C-C-C, prebuilt c3-c3-c3-c3
   34      31      23      42         9       180.000       0.83680    1     ; C-C-C-C, prebuilt c3-c3-c3-c3
   35      18      19      59         9         0.000       0.66944    3     ; C-C-C-H, prebuilt hc-c3-c3-c3
   35      18      21      60         9         0.000       0.66944    3     ; C-C-C-H, prebuilt hc-c3-c3-c3
   35      18      29      68         9         0.000       0.66944    3     ; C-C-C-H, prebuilt hc-c3-c3-c3
   35      18      29      69         9         0.000       0.66944    3     ; C-C-C-H, prebuilt hc-c3-c3-c3
   36      20      25      37         9         0.000       0.00000    2     ; C-C-C-C, prebuilt X-c2-c3-X
   36      20      28      66         9         0.000       0.66944    3     ; C-C-C-H, prebuilt hc-c3-c3-c3
   36      20      28      67         9         0.000       0.66944    3     ; C-C-C-H, prebuilt hc-c3-c3-c3
   37      25      26      38         9         0.000       0.00000    2     ; C-C-C-C, prebuilt X-c2-c3-X
   37      25      26      65         9         0.000       0.00000    2     ; C-C-C-H, prebuilt X-c2-c3-X
   37      32      19      59         9       180.000       0.00000    2     ; C-C-C-H, prebuilt X-c-c3-X
   38      26      27      39         9         0.000       0.75312    3     ; C-C-C-C, prebuilt c3-c3-c3-c3
   38      26      27      39         9       180.000       1.04600    2     ; C-C-C-C, prebuilt c3-c3-c3-c3
   38      26      27      39         9       180.000       0.83680    1     ; C-C-C-C, prebuilt c3-c3-c3-c3
   38      26      27      44         9         0.000       0.75312    3     ; C-C-C-C, prebuilt c3-c3-c3-c3
   38      26      27      44         9       180.000       1.04600    2     ; C-C-C-C, prebuilt c3-c3-c3-c3
   38      26      27      44         9       180.000       0.83680    1     ; C-C-C-C, prebuilt c3-c3-c3-c3
   38      40      43      39         9         0.000       0.75312    3     ; C-C-C-C, prebuilt c3-c3-c3-c3
   38      40      43      39         9       180.000       1.04600    2     ; C-C-C-C, prebuilt c3-c3-c3-c3
   38      40      43      39         9       180.000       0.83680    1     ; C-C-C-C, prebuilt c3-c3-c3-c3
   38      40      43      95         9         0.000       0.66944    3     ; C-C-C-H, prebuilt hc-c3-c3-c3
   38      40      43      96         9         0.000       0.66944    3     ; C-C-C-H, prebuilt hc-c3-c3-c3
   38      40      45     100         9         0.000       0.66944    3     ; C-C-C-H, prebuilt hc-c3-c3-c3
   38      40      45     101         9         0.000       0.66944    3     ; C-C-C-H, prebuilt hc-c3-c3-c3
   38      40      45     102         9         0.000       0.66944    3     ; C-C-C-H, prebuilt hc-c3-c3-c3
   39      27      26      65         9         0.000       0.66944    3     ; C-C-C-H, prebuilt hc-c3-c3-c3
   39      27      30      70         9         0.000       0.66944    3     ; C-C-C-H, prebuilt hc-c3-c3-c3
   39      27      30      71         9         0.000       0.66944    3     ; C-C-C-H, prebuilt hc-c3-c3-c3
   39      27      44      97         9         0.000       0.66944    3     ; C-C-C-H, prebuilt hc-c3-c3-c3
   39      27      44      98         9         0.000       0.66944    3     ; C-C-C-H, prebuilt hc-c3-c3-c3
   39      27      44      99         9         0.000       0.66944    3     ; C-C-C-H, prebuilt hc-c3-c3-c3
   39      43      40      45         9         0.000       0.75312    3     ; C-C-C-C, prebuilt c3-c3-c3-c3
   39      43      40      45         9       180.000       1.04600    2     ; C-C-C-C, prebuilt c3-c3-c3-c3
   39      43      40      45         9       180.000       0.83680    1     ; C-C-C-C, prebuilt c3-c3-c3-c3
   39      43      40      46         9         0.000       0.65084    3     ; C-C-C-C, prebuilt X-c3-c3-X
   40      38      26      65         9         0.000       0.66944    3     ; C-C-C-H, prebuilt hc-c3-c3-c3
   40      43      39      87         9         0.000       0.66944    3     ; C-C-C-H, prebuilt hc-c3-c3-c3
   40      43      39      88         9         0.000       0.66944    3     ; C-C-C-H, prebuilt hc-c3-c3-c3
   40      46       4     105         9       180.000       9.62320    2     ; C-C-O-H, prebuilt X-c-oh-X
   41      23      21      60         9         0.000       0.66944    3     ; C-C-C-H, prebuilt hc-c3-c3-c3
   41      23      31      72         9         0.000       0.65084    3     ; C-C-C-H, prebuilt X-c3-c3-X
   41      23      42      92         9         0.000       0.66944    3     ; C-C-C-H, prebuilt hc-c3-c3-c3
   41      23      42      93         9         0.000       0.66944    3     ; C-C-C-H, prebuilt hc-c3-c3-c3
   41      23      42      94         9         0.000       0.66944    3     ; C-C-C-H, prebuilt hc-c3-c3-c3
   42      23      21      60         9         0.000       0.66944    3     ; C-C-C-H, prebuilt hc-c3-c3-c3
   42      23      31      72         9         0.000       0.65084    3     ; C-C-C-H, prebuilt X-c3-c3-X
   42      23      41      89         9         0.000       0.66944    3     ; C-C-C-H, prebuilt hc-c3-c3-c3
   42      23      41      90         9         0.000       0.66944    3     ; C-C-C-H, prebuilt hc-c3-c3-c3
   42      23      41      91         9         0.000       0.66944    3     ; C-C-C-H, prebuilt hc-c3-c3-c3
   43      39      27      44         9         0.000       0.75312    3     ; C-C-C-C, prebuilt c3-c3-c3-c3
   43      39      27      44         9       180.000       1.04600    2     ; C-C-C-C, prebuilt c3-c3-c3-c3
   43      39      27      44         9       180.000       0.83680    1     ; C-C-C-C, prebuilt c3-c3-c3-c3
   43      40      38      85         9         0.000       0.66944    3     ; C-C-C-H, prebuilt hc-c3-c3-c3
   43      40      38      86         9         0.000       0.66944    3     ; C-C-C-H, prebuilt hc-c3-c3-c3
   43      40      45     100         9         0.000       0.66944    3     ; C-C-C-H, prebuilt hc-c3-c3-c3
   43      40      45     101         9         0.000       0.66944    3     ; C-C-C-H, prebuilt hc-c3-c3-c3
   43      40      45     102         9         0.000       0.66944    3     ; C-C-C-H, prebuilt hc-c3-c3-c3
   44      27      26      65         9         0.000       0.66944    3     ; C-C-C-H, prebuilt hc-c3-c3-c3
   44      27      30      70         9         0.000       0.66944    3     ; C-C-C-H, prebuilt hc-c3-c3-c3
   44      27      30      71         9         0.000       0.66944    3     ; C-C-C-H, prebuilt hc-c3-c3-c3
   44      27      39      87         9         0.000       0.66944    3     ; C-C-C-H, prebuilt hc-c3-c3-c3
   44      27      39      88         9         0.000       0.66944    3     ; C-C-C-H, prebuilt hc-c3-c3-c3
   45      40      38      85         9         0.000       0.66944    3     ; C-C-C-H, prebuilt hc-c3-c3-c3
   45      40      38      86         9         0.000       0.66944    3     ; C-C-C-H, prebuilt hc-c3-c3-c3
   45      40      43      95         9         0.000       0.66944    3     ; C-C-C-H, prebuilt hc-c3-c3-c3
   45      40      43      96         9         0.000       0.66944    3     ; C-C-C-H, prebuilt hc-c3-c3-c3
   46      40      38      85         9         0.000       0.65084    3     ; C-C-C-H, prebuilt X-c3-c3-X
   46      40      38      86         9         0.000       0.65084    3     ; C-C-C-H, prebuilt X-c3-c3-X
   46      40      43      95         9         0.000       0.65084    3     ; C-C-C-H, prebuilt X-c3-c3-X
   46      40      43      96         9         0.000       0.65084    3     ; C-C-C-H, prebuilt X-c3-c3-X
   46      40      45     100         9         0.000       0.65084    3     ; C-C-C-H, prebuilt X-c3-c3-X
   46      40      45     101         9         0.000       0.65084    3     ; C-C-C-H, prebuilt X-c3-c3-X
   46      40      45     102         9         0.000       0.65084    3     ; C-C-C-H, prebuilt X-c3-c3-X
   47       1      31      72         9         0.000       1.60387    3     ; C-O-C-H, prebuilt X-c3-os-X
   47       3      50      51         9         0.000       1.60247    3     ; C-O-C-C, prebuilt c3-c3-os-c3
   47       3      50      51         9       180.000       0.41840    2     ; C-O-C-C, prebuilt c3-c3-os-c3
   47       3      50      53         9         0.000       1.60387    3     ; C-O-C-C, prebuilt X-c3-os-X
   47       3      50     107         9         0.000       1.60387    3     ; C-O-C-H, prebuilt X-c3-os-X
   47      48       6      52         9         0.000       1.60247    3     ; C-C-O-C, prebuilt c3-c3-os-c3
   47      48       6      52         9       180.000       0.41840    2     ; C-C-O-C, prebuilt c3-c3-os-c3
   47      48      49      51         9         0.000       0.75312    3     ; C-C-C-C, prebuilt c3-c3-c3-c3
   47      48      49      51         9       180.000       1.04600    2     ; C-C-C-C, prebuilt c3-c3-c3-c3
   47      48      49      51         9       180.000       0.83680    1     ; C-C-C-C, prebuilt c3-c3-c3-c3
   47      48      49     106         9         0.000       0.65084    3     ; C-C-C-H, prebuilt X-c3-c3-X
   48       6      52      54         9         0.000       1.60247    3     ; C-O-C-C, prebuilt c3-c3-os-c3
   48       6      52      54         9       180.000       0.41840    2     ; C-O-C-C, prebuilt c3-c3-os-c3
   48       6      52     109         9         0.000       1.60387    3     ; C-O-C-H, prebuilt X-c3-os-X
   48      47       3      50         9         0.000       1.60247    3     ; C-C-O-C, prebuilt c3-c3-os-c3
   48      47       3      50         9       180.000       0.41840    2     ; C-C-O-C, prebuilt c3-c3-os-c3
   48      49       7     110         9         0.000       0.66944    3     ; C-C-O-H, prebuilt ho-oh-c3-c3
   48      49       7     110         9         0.000       1.04600    1     ; C-C-O-H, prebuilt ho-oh-c3-c3
   48      49      51      50         9         0.000       0.75312    3     ; C-C-C-C, prebuilt c3-c3-c3-c3
   48      49      51      50         9       180.000       1.04600    2     ; C-C-C-C, prebuilt c3-c3-c3-c3
   48      49      51      50         9       180.000       0.83680    1     ; C-C-C-C, prebuilt c3-c3-c3-c3
   48      49      51     108         9         0.000       0.65084    3     ; C-C-C-H, prebuilt X-c3-c3-X
   49      48       6      52         9         0.000       1.60247    3     ; C-C-O-C, prebuilt c3-c3-os-c3
   49      48       6      52         9       180.000       0.41840    2     ; C-C-O-C, prebuilt c3-c3-os-c3
   49      48      47     103         9         0.000       0.65084    3     ; C-C-C-H, prebuilt X-c3-c3-X
   49      51       8     111         9         0.000       0.66944    3     ; C-C-O-H, prebuilt ho-oh-c3-c3
   49      51       8     111         9         0.000       1.04600    1     ; C-C-O-H, prebuilt ho-oh-c3-c3
   49      51      50      53         9         0.000       0.65084    3     ; C-C-C-C, prebuilt X-c3-c3-X
   49      51      50     107         9         0.000       0.65084    3     ; C-C-C-H, prebuilt X-c3-c3-X
   50       3      47     103         9         0.000       1.60387    3     ; C-O-C-H, prebuilt X-c3-os-X
   50      51       8     111         9         0.000       0.66944    3     ; C-C-O-H, prebuilt ho-oh-c3-c3
   50      51       8     111         9         0.000       1.04600    1     ; C-C-O-H, prebuilt ho-oh-c3-c3
   50      51      49     106         9         0.000       0.65084    3     ; C-C-C-H, prebuilt X-c3-c3-X
   50      53      10     115         9       180.000       9.62320    2     ; C-C-O-H, prebuilt X-c-oh-X
   51      49       7     110         9         0.000       0.66944    3     ; C-C-O-H, prebuilt ho-oh-c3-c3
   51      49       7     110         9         0.000       1.04600    1     ; C-C-O-H, prebuilt ho-oh-c3-c3
   51      49      48     104         9         0.000       0.65084    3     ; C-C-C-H, prebuilt X-c3-c3-X
   52       6      48     104         9         0.000       1.60387    3     ; C-O-C-H, prebuilt X-c3-os-X
   52       9      56      57         9         0.000       1.60247    3     ; C-O-C-C, prebuilt c3-c3-os-c3
   52       9      56      57         9       180.000       0.41840    2     ; C-O-C-C, prebuilt c3-c3-os-c3
   52       9      56      58         9         0.000       1.60387    3     ; C-O-C-C, prebuilt X-c3-os-X
   52       9      56     114         9         0.000       1.60387    3     ; C-O-C-H, prebuilt X-c3-os-X
   52      54      12     117         9         0.000       0.66944    3     ; C-C-O-H, prebuilt ho-oh-c3-c3
   52      54      12     117         9         0.000       1.04600    1     ; C-C-O-H, prebuilt ho-oh-c3-c3
   52      54      55      57         9         0.000       0.75312    3     ; C-C-C-C, prebuilt c3-c3-c3-c3
   52      54      55      57         9       180.000       1.04600    2     ; C-C-C-C, prebuilt c3-c3-c3-c3
   52      54      55      57         9       180.000       0.83680    1     ; C-C-C-C, prebuilt c3-c3-c3-c3
   52      54      55     113         9         0.000       0.65084    3     ; C-C-C-H, prebuilt X-c3-c3-X
   53      50      51     108         9         0.000       0.65084    3     ; C-C-C-H, prebuilt X-c3-c3-X
   54      52       9      56         9         0.000       1.60247    3     ; C-C-O-C, prebuilt c3-c3-os-c3
   54      52       9      56         9       180.000       0.41840    2     ; C-C-O-C, prebuilt c3-c3-os-c3
   54      55      13     118         9         0.000       0.66944    3     ; C-C-O-H, prebuilt ho-oh-c3-c3
   54      55      13     118         9         0.000       1.04600    1     ; C-C-O-H, prebuilt ho-oh-c3-c3
   54      55      57      56         9         0.000       0.75312    3     ; C-C-C-C, prebuilt c3-c3-c3-c3
   54      55      57      56         9       180.000       1.04600    2     ; C-C-C-C, prebuilt c3-c3-c3-c3
   54      55      57      56         9       180.000       0.83680    1     ; C-C-C-C, prebuilt c3-c3-c3-c3
   54      55      57     116         9         0.000       0.65084    3     ; C-C-C-H, prebuilt X-c3-c3-X
   55      54      12     117         9         0.000       0.66944    3     ; C-C-O-H, prebuilt ho-oh-c3-c3
   55      54      12     117         9         0.000       1.04600    1     ; C-C-O-H, prebuilt ho-oh-c3-c3
   55      54      52     109         9         0.000       0.65084    3     ; C-C-C-H, prebuilt X-c3-c3-X
   55      57      14     119         9         0.000       0.66944    3     ; C-C-O-H, prebuilt ho-oh-c3-c3
   55      57      14     119         9         0.000       1.04600    1     ; C-C-O-H, prebuilt ho-oh-c3-c3
   55      57      56      58         9         0.000       0.65084    3     ; C-C-C-C, prebuilt X-c3-c3-X
   55      57      56     114         9         0.000       0.65084    3     ; C-C-C-H, prebuilt X-c3-c3-X
   56       9      52     109         9         0.000       1.60387    3     ; C-O-C-H, prebuilt X-c3-os-X
   56      57      14     119         9         0.000       0.66944    3     ; C-C-O-H, prebuilt ho-oh-c3-c3
   56      57      14     119         9         0.000       1.04600    1     ; C-C-O-H, prebuilt ho-oh-c3-c3
   56      57      55     113         9         0.000       0.65084    3     ; C-C-C-H, prebuilt X-c3-c3-X
   56      58      15     120         9       180.000       9.62320    2     ; C-C-O-H, prebuilt X-c-oh-X
   57      55      13     118         9         0.000       0.66944    3     ; C-C-O-H, prebuilt ho-oh-c3-c3
   57      55      13     118         9         0.000       1.04600    1     ; C-C-O-H, prebuilt ho-oh-c3-c3
   57      55      54     112         9         0.000       0.65084    3     ; C-C-C-H, prebuilt X-c3-c3-X
   58      56      57     116         9         0.000       0.65084    3     ; C-C-C-H, prebuilt X-c3-c3-X
   60      21      24      63         9         0.000       0.62760    3     ; H-C-C-H, prebuilt hc-c3-c3-hc
   60      21      24      64         9         0.000       0.62760    3     ; H-C-C-H, prebuilt hc-c3-c3-hc
   61      22      24      63         9         0.000       0.62760    3     ; H-C-C-H, prebuilt hc-c3-c3-hc
   61      22      24      64         9         0.000       0.62760    3     ; H-C-C-H, prebuilt hc-c3-c3-hc
   62      22      24      63         9         0.000       0.62760    3     ; H-C-C-H, prebuilt hc-c3-c3-hc
   62      22      24      64         9         0.000       0.62760    3     ; H-C-C-H, prebuilt hc-c3-c3-hc
   65      26      38      85         9         0.000       0.62760    3     ; H-C-C-H, prebuilt hc-c3-c3-hc
   65      26      38      86         9         0.000       0.62760    3     ; H-C-C-H, prebuilt hc-c3-c3-hc
   66      28      30      70         9         0.000       0.62760    3     ; H-C-C-H, prebuilt hc-c3-c3-hc
   66      28      30      71         9         0.000       0.62760    3     ; H-C-C-H, prebuilt hc-c3-c3-hc
   67      28      30      70         9         0.000       0.62760    3     ; H-C-C-H, prebuilt hc-c3-c3-hc
   67      28      30      71         9         0.000       0.62760    3     ; H-C-C-H, prebuilt hc-c3-c3-hc
   68      29      34      76         9         0.000       0.62760    3     ; H-C-C-H, prebuilt hc-c3-c3-hc
   68      29      34      77         9         0.000       0.62760    3     ; H-C-C-H, prebuilt hc-c3-c3-hc
   69      29      34      76         9         0.000       0.62760    3     ; H-C-C-H, prebuilt hc-c3-c3-hc
   69      29      34      77         9         0.000       0.62760    3     ; H-C-C-H, prebuilt hc-c3-c3-hc
   72      31      34      76         9         0.000       0.65084    3     ; H-C-C-H, prebuilt X-c3-c3-X
   72      31      34      77         9         0.000       0.65084    3     ; H-C-C-H, prebuilt X-c3-c3-X
   87      39      43      95         9         0.000       0.62760    3     ; H-C-C-H, prebuilt hc-c3-c3-hc
   87      39      43      96         9         0.000       0.62760    3     ; H-C-C-H, prebuilt hc-c3-c3-hc
   88      39      43      95         9         0.000       0.62760    3     ; H-C-C-H, prebuilt hc-c3-c3-hc
   88      39      43      96         9         0.000       0.62760    3     ; H-C-C-H, prebuilt hc-c3-c3-hc
  103      47      48     104         9         0.000       0.65084    3     ; H-C-C-H, prebuilt X-c3-c3-X
  104      48      49     106         9         0.000       0.65084    3     ; H-C-C-H, prebuilt X-c3-c3-X
  106      49       7     110         9         0.000       0.69733    3     ; H-C-O-H, prebuilt X-c3-oh-X
  106      49      51     108         9         0.000       0.65084    3     ; H-C-C-H, prebuilt X-c3-c3-X
  107      50      51     108         9         0.000       0.65084    3     ; H-C-C-H, prebuilt X-c3-c3-X
  108      51       8     111         9         0.000       0.69733    3     ; H-C-O-H, prebuilt X-c3-oh-X
  109      52      54     112         9         0.000       0.65084    3     ; H-C-C-H, prebuilt X-c3-c3-X
  112      54      12     117         9         0.000       0.69733    3     ; H-C-O-H, prebuilt X-c3-oh-X
  112      54      55     113         9         0.000       0.65084    3     ; H-C-C-H, prebuilt X-c3-c3-X
  113      55      13     118         9         0.000       0.69733    3     ; H-C-O-H, prebuilt X-c3-oh-X
  113      55      57     116         9         0.000       0.65084    3     ; H-C-C-H, prebuilt X-c3-c3-X
  114      56      57     116         9         0.000       0.65084    3     ; H-C-C-H, prebuilt X-c3-c3-X
  116      57      14     119         9         0.000       0.69733    3     ; H-C-O-H, prebuilt X-c3-oh-X

[ pairs ] ; Yielded based on rotatable dihedrals
; atom_i  atom_j  functype
    1      21         1     ; O-C-C-C
    1      41         1     ; O-C-C-C
    1      42         1     ; O-C-C-C
    1      29         1     ; O-C-C-C
    1      76         1     ; O-C-C-H
    1      77         1     ; O-C-C-H
    1      50         1     ; O-C-O-C
    1       6         1     ; O-C-C-O
    1      49         1     ; O-C-C-C
    1     104         1     ; O-C-C-H
    2      17         1     ; O-C-C-C
    2      18         1     ; O-C-C-C
    2      59         1     ; O-C-C-H
    2      25         1     ; O-C-C-C
    2      84         1     ; O-C-C-H
    3      31         1     ; O-C-O-C
    3       6         1     ; O-C-C-O
    3      49         1     ; O-C-C-C
    3     104         1     ; O-C-C-H
    3       8         1     ; O-C-C-O
    3     108         1     ; O-C-C-H
    3      10         1     ; O-C-C-O
    3      11         1     ; O-C-C-O
    4      38         1     ; O-C-C-C
    4      43         1     ; O-C-C-C
    4      45         1     ; O-C-C-C
    5     105         1     ; O-C-O-H
    5      38         1     ; O-C-C-C
    5      43         1     ; O-C-C-C
    5      45         1     ; O-C-C-C
    6     103         1     ; O-C-C-H
    6       7         1     ; O-C-C-O
    6      51         1     ; O-C-C-C
    6     106         1     ; O-C-C-H
    6      56         1     ; O-C-O-C
    6      12         1     ; O-C-C-O
    6      55         1     ; O-C-C-C
    6     112         1     ; O-C-C-H
    7      47         1     ; O-C-C-C
    7     104         1     ; O-C-C-H
    7       8         1     ; O-C-C-O
    7      50         1     ; O-C-C-C
    7     108         1     ; O-C-C-H
    8      48         1     ; O-C-C-C
    8     106         1     ; O-C-C-H
    8      53         1     ; O-C-C-C
    8     107         1     ; O-C-C-H
    9      48         1     ; O-C-O-C
    9      12         1     ; O-C-C-O
    9      55         1     ; O-C-C-C
    9     112         1     ; O-C-C-H
    9      14         1     ; O-C-C-O
    9     116         1     ; O-C-C-H
    9      15         1     ; O-C-C-O
    9      16         1     ; O-C-C-O
   10      51         1     ; O-C-C-C
   10     107         1     ; O-C-C-H
   11     115         1     ; O-C-O-H
   11      51         1     ; O-C-C-C
   11     107         1     ; O-C-C-H
   12     109         1     ; O-C-C-H
   12      13         1     ; O-C-C-O
   12      57         1     ; O-C-C-C
   12     113         1     ; O-C-C-H
   13      52         1     ; O-C-C-C
   13     112         1     ; O-C-C-H
   13      14         1     ; O-C-C-O
   13      56         1     ; O-C-C-C
   13     116         1     ; O-C-C-H
   14      54         1     ; O-C-C-C
   14     113         1     ; O-C-C-H
   14      58         1     ; O-C-C-C
   14     114         1     ; O-C-C-H
   15      57         1     ; O-C-C-C
   15     114         1     ; O-C-C-H
   16     120         1     ; O-C-O-H
   16      57         1     ; O-C-C-C
   16     114         1     ; O-C-C-H
   17      21         1     ; C-C-C-C
   17      29         1     ; C-C-C-C
   17      35         1     ; C-C-C-C
   17      37         1     ; C-C-C-C
   17      26         1     ; C-C-C-C
   17      30         1     ; C-C-C-C
   17      66         1     ; C-C-C-H
   17      67         1     ; C-C-C-H
   17      81         1     ; C-C-C-H
   17      82         1     ; C-C-C-H
   17      83         1     ; C-C-C-H
   17      63         1     ; C-C-C-H
   17      64         1     ; C-C-C-H
   18      20         1     ; C-C-C-C
   18      22         1     ; C-C-C-C
   18      33         1     ; C-C-C-C
   18      37         1     ; C-C-C-C
   18      31         1     ; C-C-C-C
   18      41         1     ; C-C-C-C
   18      42         1     ; C-C-C-C
   18      63         1     ; C-C-C-H
   18      64         1     ; C-C-C-H
   18      76         1     ; C-C-C-H
   18      77         1     ; C-C-C-H
   19      25         1     ; C-C-C-C
   19      28         1     ; C-C-C-C
   19      36         1     ; C-C-C-C
   19      24         1     ; C-C-C-C
   19      61         1     ; C-C-C-H
   19      62         1     ; C-C-C-H
   19      73         1     ; C-C-C-H
   19      74         1     ; C-C-C-H
   19      75         1     ; C-C-C-H
   19      23         1     ; C-C-C-C
   19      60         1     ; C-C-C-H
   19      34         1     ; C-C-C-C
   19      68         1     ; C-C-C-H
   19      69         1     ; C-C-C-H
   19      78         1     ; C-C-C-H
   19      79         1     ; C-C-C-H
   19      80         1     ; C-C-C-H
   19      84         1     ; C-C-C-H
   20      32         1     ; C-C-C-C
   20      59         1     ; C-C-C-H
   20      24         1     ; C-C-C-C
   20      61         1     ; C-C-C-H
   20      62         1     ; C-C-C-H
   20      73         1     ; C-C-C-H
   20      74         1     ; C-C-C-H
   20      75         1     ; C-C-C-H
   20      27         1     ; C-C-C-C
   20      38         1     ; C-C-C-C
   20      65         1     ; C-C-C-H
   20      84         1     ; C-C-C-H
   20      70         1     ; C-C-C-H
   20      71         1     ; C-C-C-H
   21      32         1     ; C-C-C-C
   21      59         1     ; C-C-C-H
   21      34         1     ; C-C-C-C
   21      68         1     ; C-C-C-H
   21      69         1     ; C-C-C-H
   21      78         1     ; C-C-C-H
   21      79         1     ; C-C-C-H
   21      80         1     ; C-C-C-H
   21      72         1     ; C-C-C-H
   21      89         1     ; C-C-C-H
   21      90         1     ; C-C-C-H
   21      91         1     ; C-C-C-H
   21      92         1     ; C-C-C-H
   21      93         1     ; C-C-C-H
   21      94         1     ; C-C-C-H
   21      61         1     ; C-C-C-H
   21      62         1     ; C-C-C-H
   22      32         1     ; C-C-C-C
   22      59         1     ; C-C-C-H
   22      25         1     ; C-C-C-C
   22      28         1     ; C-C-C-C
   22      36         1     ; C-C-C-C
   22      73         1     ; C-C-C-H
   22      74         1     ; C-C-C-H
   22      75         1     ; C-C-C-H
   22      23         1     ; C-C-C-C
   22      60         1     ; C-C-C-H
   23      29         1     ; C-C-C-C
   23      35         1     ; C-C-C-C
   23      63         1     ; C-C-C-H
   23      64         1     ; C-C-C-H
   23      47         1     ; C-C-O-C
   23      76         1     ; C-C-C-H
   23      77         1     ; C-C-C-H
   24      29         1     ; C-C-C-C
   24      35         1     ; C-C-C-C
   24      31         1     ; C-C-C-C
   24      41         1     ; C-C-C-C
   24      42         1     ; C-C-C-C
   24      33         1     ; C-C-C-C
   25      33         1     ; C-C-C-C
   25      30         1     ; C-C-C-C
   25      66         1     ; C-C-C-H
   25      67         1     ; C-C-C-H
   25      81         1     ; C-C-C-H
   25      82         1     ; C-C-C-H
   25      83         1     ; C-C-C-H
   25      39         1     ; C-C-C-C
   25      44         1     ; C-C-C-C
   25      40         1     ; C-C-C-C
   25      85         1     ; C-C-C-H
   25      86         1     ; C-C-C-H
   26      28         1     ; C-C-C-C
   26      36         1     ; C-C-C-C
   26      32         1     ; C-C-C-C
   26      84         1     ; C-C-C-H
   26      70         1     ; C-C-C-H
   26      71         1     ; C-C-C-H
   26      43         1     ; C-C-C-C
   26      87         1     ; C-C-C-H
   26      88         1     ; C-C-C-H
   26      97         1     ; C-C-C-H
   26      98         1     ; C-C-C-H
   26      99         1     ; C-C-C-H
   26      45         1     ; C-C-C-C
   26      46         1     ; C-C-C-C
   27      37         1     ; C-C-C-C
   27      40         1     ; C-C-C-C
   27      85         1     ; C-C-C-H
   27      86         1     ; C-C-C-H
   27      66         1     ; C-C-C-H
   27      67         1     ; C-C-C-H
   27      95         1     ; C-C-C-H
   27      96         1     ; C-C-C-H
   28      33         1     ; C-C-C-C
   28      37         1     ; C-C-C-C
   28      81         1     ; C-C-C-H
   28      82         1     ; C-C-C-H
   28      83         1     ; C-C-C-H
   28      39         1     ; C-C-C-C
   28      44         1     ; C-C-C-C
   29      32         1     ; C-C-C-C
   29      59         1     ; C-C-C-H
   29      60         1     ; C-C-C-H
   29      78         1     ; C-C-C-H
   29      79         1     ; C-C-C-H
   29      80         1     ; C-C-C-H
   29      72         1     ; C-C-C-H
   30      38         1     ; C-C-C-C
   30      65         1     ; C-C-C-H
   30      43         1     ; C-C-C-C
   30      87         1     ; C-C-C-H
   30      88         1     ; C-C-C-H
   30      97         1     ; C-C-C-H
   30      98         1     ; C-C-C-H
   30      99         1     ; C-C-C-H
   30      36         1     ; C-C-C-C
   31      48         1     ; C-O-C-C
   31     103         1     ; C-O-C-H
   31      60         1     ; C-C-C-H
   31      89         1     ; C-C-C-H
   31      90         1     ; C-C-C-H
   31      91         1     ; C-C-C-H
   31      92         1     ; C-C-C-H
   31      93         1     ; C-C-C-H
   31      94         1     ; C-C-C-H
   31      68         1     ; C-C-C-H
   31      69         1     ; C-C-C-H
   32      33         1     ; C-C-C-C
   32      35         1     ; C-C-C-C
   33      59         1     ; C-C-C-H
   33      36         1     ; C-C-C-C
   33      61         1     ; C-C-C-H
   33      62         1     ; C-C-C-H
   34      35         1     ; C-C-C-C
   34      47         1     ; C-C-O-C
   34      41         1     ; C-C-C-C
   34      42         1     ; C-C-C-C
   35      59         1     ; C-C-C-H
   35      60         1     ; C-C-C-H
   35      68         1     ; C-C-C-H
   35      69         1     ; C-C-C-H
   36      37         1     ; C-C-C-C
   36      66         1     ; C-C-C-H
   36      67         1     ; C-C-C-H
   37      38         1     ; C-C-C-C
   37      65         1     ; C-C-C-H
   37      59         1     ; C-C-C-H
   38      39         1     ; C-C-C-C
   38      44         1     ; C-C-C-C
   38      95         1     ; C-C-C-H
   38      96         1     ; C-C-C-H
   38     100         1     ; C-C-C-H
   38     101         1     ; C-C-C-H
   38     102         1     ; C-C-C-H
   39      65         1     ; C-C-C-H
   39      70         1     ; C-C-C-H
   39      71         1     ; C-C-C-H
   39      97         1     ; C-C-C-H
   39      98         1     ; C-C-C-H
   39      99         1     ; C-C-C-H
   39      45         1     ; C-C-C-C
   39      46         1     ; C-C-C-C
   40      65         1     ; C-C-C-H
   40      87         1     ; C-C-C-H
   40      88         1     ; C-C-C-H
   40     105         1     ; C-C-O-H
   41      60         1     ; C-C-C-H
   41      72         1     ; C-C-C-H
   41      92         1     ; C-C-C-H
   41      93         1     ; C-C-C-H
   41      94         1     ; C-C-C-H
   42      60         1     ; C-C-C-H
   42      72         1     ; C-C-C-H
   42      89         1     ; C-C-C-H
   42      90         1     ; C-C-C-H
   42      91         1     ; C-C-C-H
   43      44         1     ; C-C-C-C
   43      85         1     ; C-C-C-H
   43      86         1     ; C-C-C-H
   43     100         1     ; C-C-C-H
   43     101         1     ; C-C-C-H
   43     102         1     ; C-C-C-H
   44      65         1     ; C-C-C-H
   44      70         1     ; C-C-C-H
   44      71         1     ; C-C-C-H
   44      87         1     ; C-C-C-H
   44      88         1     ; C-C-C-H
   45      85         1     ; C-C-C-H
   45      86         1     ; C-C-C-H
   45      95         1     ; C-C-C-H
   45      96         1     ; C-C-C-H
   46      85         1     ; C-C-C-H
   46      86         1     ; C-C-C-H
   46      95         1     ; C-C-C-H
   46      96         1     ; C-C-C-H
   46     100         1     ; C-C-C-H
   46     101         1     ; C-C-C-H
   46     102         1     ; C-C-C-H
   47      72         1     ; C-O-C-H
   47      51         1     ; C-O-C-C
   47      53         1     ; C-O-C-C
   47     107         1     ; C-O-C-H
   47      52         1     ; C-C-O-C
   47     106         1     ; C-C-C-H
   48      54         1     ; C-O-C-C
   48     109         1     ; C-O-C-H
   48      50         1     ; C-C-O-C
   48     110         1     ; C-C-O-H
   48     108         1     ; C-C-C-H
   49      52         1     ; C-C-O-C
   49     103         1     ; C-C-C-H
   49     111         1     ; C-C-O-H
   49      53         1     ; C-C-C-C
   49     107         1     ; C-C-C-H
   50     103         1     ; C-O-C-H
   50     111         1     ; C-C-O-H
   50     106         1     ; C-C-C-H
   50     115         1     ; C-C-O-H
   51     110         1     ; C-C-O-H
   51     104         1     ; C-C-C-H
   52     104         1     ; C-O-C-H
   52      57         1     ; C-O-C-C
   52      58         1     ; C-O-C-C
   52     114         1     ; C-O-C-H
   52     117         1     ; C-C-O-H
   52     113         1     ; C-C-C-H
   53     108         1     ; C-C-C-H
   54      56         1     ; C-C-O-C
   54     118         1     ; C-C-O-H
   54     116         1     ; C-C-C-H
   55     117         1     ; C-C-O-H
   55     109         1     ; C-C-C-H
   55     119         1     ; C-C-O-H
   55      58         1     ; C-C-C-C
   55     114         1     ; C-C-C-H
   56     109         1     ; C-O-C-H
   56     119         1     ; C-C-O-H
   56     113         1     ; C-C-C-H
   56     120         1     ; C-C-O-H
   57     118         1     ; C-C-O-H
   57     112         1     ; C-C-C-H
   58     116         1     ; C-C-C-H
   60      63         1     ; H-C-C-H
   60      64         1     ; H-C-C-H
   61      63         1     ; H-C-C-H
   61      64         1     ; H-C-C-H
   62      63         1     ; H-C-C-H
   62      64         1     ; H-C-C-H
   65      85         1     ; H-C-C-H
   65      86         1     ; H-C-C-H
   66      70         1     ; H-C-C-H
   66      71         1     ; H-C-C-H
   67      70         1     ; H-C-C-H
   67      71         1     ; H-C-C-H
   68      76         1     ; H-C-C-H
   68      77         1     ; H-C-C-H
   69      76         1     ; H-C-C-H
   69      77         1     ; H-C-C-H
   72      76         1     ; H-C-C-H
   72      77         1     ; H-C-C-H
   87      95         1     ; H-C-C-H
   87      96         1     ; H-C-C-H
   88      95         1     ; H-C-C-H
   88      96         1     ; H-C-C-H
  103     104         1     ; H-C-C-H
  104     106         1     ; H-C-C-H
  106     110         1     ; H-C-O-H
  106     108         1     ; H-C-C-H
  107     108         1     ; H-C-C-H
  108     111         1     ; H-C-O-H
  109     112         1     ; H-C-C-H
  112     117         1     ; H-C-O-H
  112     113         1     ; H-C-C-H
  113     118         1     ; H-C-O-H
  113     116         1     ; H-C-C-H
  114     116         1     ; H-C-C-H
  116     119         1     ; H-C-O-H
 
[ dihedrals ] ; impropers
; atom_i  atom_j  atom_k  atom_l  functype  phase (Deg.)  kd (kJ/mol)  pn
   20      26      25      37         4       180.000       4.60240    2     ; C-C-C-C, guess (same as GAFF X -X -ca-ha)
    2      19      32      37         4       180.000      43.93200    2     ; O-C-C-C, prebuilt X-X-c-o
    4       5      46      40         4       180.000       4.60240    2     ; O-O-C-C, prebuilt c3-o-c-oh
   10      11      53      50         4       180.000       4.60240    2     ; O-O-C-C, prebuilt c3-o-c-oh
   15      16      58      56         4       180.000       4.60240    2     ; O-O-C-C, prebuilt c3-o-c-oh
