
; Include forcefield parameters
#include "amber99sb-ildn.ff/forcefield.itp"

#include "GAFF.itp"
; Include chain topologies
#include "RT.itp"
#include "GA.itp"

; Include water topology
#include "amber99sb-ildn.ff/tip3p.itp"

; Include topology for ions
#include "amber99sb-ildn.ff/ions.itp"

[ system ]
; Name
RT with GA in water

[ molecules ]
; Compound        #mols
RT		50
GA		50
